Untitled

49 atoms
52 bonds
90 angles
216 dihedrals
28 impropers

15 atom types
52 bond types
90 angle types
216 dihedral types
28 improper types

 -0.4400000  -0.4400000 xlo xhi
  6.2100000   6.2100000 ylo yhi
 22.2100000  22.2100000 zlo zhi
  0.0000000   0.0000000   0.0000000 xy xz yz

Masses

1  14.0067000
2  12.0110000
3  14.0067000
4  12.0110000
5  12.0110000
6  14.0067000
7   1.0079000
8   1.0079000
9   1.0079000
10  14.0067000
11  12.0110000
12  14.0067000
13  32.0660000
14  15.9994000
15  78.9183000

Bond Coeffs

1 harmonic    4.53459011e+02    1.36400000e+00
2 harmonic    4.53459011e+02    1.36400000e+00
3 harmonic    4.40002032e+02    1.44500000e+00
4 harmonic    5.25282027e+02    1.33000000e+00
5 harmonic    5.12255975e+02    1.37700000e+00
6 harmonic    4.12869981e+02    1.33300000e+00
7 harmonic    4.12869981e+02    1.33300000e+00
8 harmonic    4.12869981e+02    1.33300000e+00
9 harmonic    4.43383963e+02    1.37900000e+00
10 harmonic    4.43888026e+02    1.39800000e+00
11 harmonic    3.20682003e+02    1.36900000e+00
12 harmonic    5.99190966e+02    1.31300000e+00
13 harmonic    2.68002032e+02    1.73300000e+00
14 harmonic    4.01067997e+02    1.37400000e+00
15 harmonic    4.01067997e+02    1.37400000e+00
16 harmonic    4.01067997e+02    1.37400000e+00
17 harmonic    4.01067997e+02    1.37400000e+00
18 harmonic    4.04019001e+02    1.37600000e+00
19 harmonic    4.01067997e+02    1.37400000e+00
20 harmonic    4.01067997e+02    1.37400000e+00
21 harmonic    2.18130019e+02    1.89100000e+00
22 harmonic    3.81853011e+02    1.08400000e+00
23 harmonic    3.42991037e+02    1.09300000e+00
24 harmonic    3.42991037e+02    1.09300000e+00
25 harmonic    3.42991037e+02    1.09300000e+00
26 harmonic    3.42991037e+02    1.09300000e+00
27 harmonic    3.81853011e+02    1.08400000e+00
28 harmonic    3.42991037e+02    1.09300000e+00
29 harmonic    4.73250000e+02    1.01800000e+00
30 harmonic    4.67060946e+02    1.01900000e+00
31 harmonic    4.73250000e+02    1.01800000e+00
32 harmonic    3.42991037e+02    1.09300000e+00
33 harmonic    3.81853011e+02    1.08400000e+00
34 harmonic    3.42991037e+02    1.09300000e+00
35 harmonic    3.42991037e+02    1.09300000e+00
36 harmonic    3.42991037e+02    1.09300000e+00
37 harmonic    3.42991037e+02    1.09300000e+00
38 harmonic    3.42991037e+02    1.09300000e+00
39 harmonic    3.42991037e+02    1.09300000e+00
40 harmonic    3.42991037e+02    1.09300000e+00
41 harmonic    3.42991037e+02    1.09300000e+00
42 harmonic    3.42991037e+02    1.09300000e+00
43 harmonic    3.06432003e+02    1.50800000e+00
44 harmonic    3.06432003e+02    1.50800000e+00
45 harmonic    3.65875956e+02    1.45100000e+00
46 harmonic    3.65875956e+02    1.45100000e+00
47 harmonic    3.06432003e+02    1.50800000e+00
48 harmonic    3.06432003e+02    1.50800000e+00
49 harmonic    2.56559990e+02    1.76500000e+00
50 harmonic    3.63214030e+02    1.41800000e+00
51 harmonic    3.63214030e+02    1.41800000e+00
52 harmonic    4.04019001e+02    1.37600000e+00

Angle Coeffs

1 harmonic    7.35492352e+01    1.24814000e+02
2 harmonic    5.85074092e+01    1.07255000e+02
3 harmonic    7.28286329e+01    1.10865000e+02
4 harmonic    7.65714627e+01    1.17958000e+02
5 harmonic    5.83640057e+01    1.06299000e+02
6 harmonic    5.83640057e+01    1.06299000e+02
7 harmonic    6.67124761e+01    1.09170000e+02
8 harmonic    8.29039197e+01    1.09599000e+02
9 harmonic    6.14591300e+01    1.23380000e+02
10 harmonic    8.85181644e+01    1.10181000e+02
11 harmonic    6.52007648e+01    1.17966000e+02
12 harmonic    7.47000478e+01    1.11621000e+02
13 harmonic    6.54887667e+01    1.26513000e+02
14 harmonic    5.21749522e+01    1.28938000e+02
15 harmonic    4.98721319e+01    1.15588000e+02
16 harmonic    7.80831740e+01    1.15406000e+02
17 harmonic    4.98721319e+01    1.15588000e+02
18 harmonic    7.70028681e+01    1.16605000e+02
19 harmonic    7.36926386e+01    1.23755000e+02
20 harmonic    6.08114245e+01    1.30337000e+02
21 harmonic    4.76410134e+01    1.10288000e+02
22 harmonic    4.76410134e+01    1.10288000e+02
23 harmonic    6.70004780e+01    1.23541000e+02
24 harmonic    8.67913480e+01    1.03779000e+02
25 harmonic    6.92315966e+01    1.24490000e+02
26 harmonic    6.14591300e+01    1.23380000e+02
27 harmonic    9.92411568e+01    9.61970000e+01
28 harmonic    4.81453155e+01    1.19977000e+02
29 harmonic    4.05174474e+01    1.20571000e+02
30 harmonic    4.81453155e+01    1.19977000e+02
31 harmonic    6.59930688e+01    1.18117000e+02
32 harmonic    4.81453155e+01    1.19977000e+02
33 harmonic    5.43343690e+01    1.21037000e+02
34 harmonic    4.81453155e+01    1.19977000e+02
35 harmonic    6.96630019e+01    1.16495000e+02
36 harmonic    4.05174474e+01    1.20571000e+02
37 harmonic    4.81453155e+01    1.19977000e+02
38 harmonic    6.96630019e+01    1.16495000e+02
39 harmonic    7.73625717e+01    1.02846000e+02
40 harmonic    6.96630019e+01    1.16495000e+02
41 harmonic    4.81453155e+01    1.19977000e+02
42 harmonic    4.05174474e+01    1.20571000e+02
43 harmonic    7.73625717e+01    1.02846000e+02
44 harmonic    6.96630019e+01    1.16495000e+02
45 harmonic    6.59930688e+01    1.18117000e+02
46 harmonic    5.43343690e+01    1.21037000e+02
47 harmonic    4.05174474e+01    1.20571000e+02
48 harmonic    3.71343212e+01    1.08836000e+02
49 harmonic    4.57695985e+01    1.10549000e+02
50 harmonic    3.71343212e+01    1.08836000e+02
51 harmonic    4.57695985e+01    1.10549000e+02
52 harmonic    4.57695985e+01    1.10549000e+02
53 harmonic    3.71343212e+01    1.08836000e+02
54 harmonic    5.62045889e+01    1.08577000e+02
55 harmonic    5.62045889e+01    1.08577000e+02
56 harmonic    5.62045889e+01    1.08577000e+02
57 harmonic    5.62045889e+01    1.08577000e+02
58 harmonic    4.57695985e+01    1.10549000e+02
59 harmonic    4.03011472e+01    1.09160000e+02
60 harmonic    5.49103728e+01    1.09062000e+02
61 harmonic    5.49103728e+01    1.09062000e+02
62 harmonic    3.71343212e+01    1.08836000e+02
63 harmonic    4.57695985e+01    1.10549000e+02
64 harmonic    4.69945029e+01    1.10297000e+02
65 harmonic    4.57695985e+01    1.10549000e+02
66 harmonic    4.69945029e+01    1.10297000e+02
67 harmonic    4.57695985e+01    1.10549000e+02
68 harmonic    4.57695985e+01    1.10549000e+02
69 harmonic    3.71343212e+01    1.08836000e+02
70 harmonic    3.71343212e+01    1.08836000e+02
71 harmonic    4.57695985e+01    1.10549000e+02
72 harmonic    3.71343212e+01    1.08836000e+02
73 harmonic    4.57695985e+01    1.10549000e+02
74 harmonic    4.57695985e+01    1.10549000e+02
75 harmonic    4.69945029e+01    1.10297000e+02
76 harmonic    4.57695985e+01    1.10549000e+02
77 harmonic    4.57695985e+01    1.10549000e+02
78 harmonic    3.71343212e+01    1.08836000e+02
79 harmonic    3.71343212e+01    1.08836000e+02
80 harmonic    4.57695985e+01    1.10549000e+02
81 harmonic    3.71343212e+01    1.08836000e+02
82 harmonic    4.57695985e+01    1.10549000e+02
83 harmonic    4.57695985e+01    1.10549000e+02
84 harmonic    6.12428298e+01    1.09608000e+02
85 harmonic    5.59165870e+01    1.08290000e+02
86 harmonic    7.84428776e+01    1.07018000e+02
87 harmonic    5.59165870e+01    1.08290000e+02
88 harmonic    5.59165870e+01    1.08290000e+02
89 harmonic    6.12428298e+01    1.09608000e+02
90 harmonic    8.31919216e+01    1.11368000e+02

Dihedral Coeffs

1 multi/harmonic    7.00000000e+00    0.00000000e+00   -7.00000000e+00    0.00000000e+00    0.00000000e+00
2 multi/harmonic    7.00000000e+00    0.00000000e+00   -7.00000000e+00    0.00000000e+00    0.00000000e+00
3 multi/harmonic    7.00000000e+00    0.00000000e+00   -7.00000000e+00    0.00000000e+00    0.00000000e+00
4 multi/harmonic    7.00000000e+00    0.00000000e+00   -7.00000000e+00    0.00000000e+00    0.00000000e+00
5 multi/harmonic    1.42399618e+00    0.00000000e+00   -1.42399618e+00    0.00000000e+00    0.00000000e+00
6 multi/harmonic    1.39005736e-01   -4.17017208e-01    0.00000000e+00    5.56022945e-01    0.00000000e+00
7 multi/harmonic    1.39005736e-01   -4.17017208e-01    0.00000000e+00    5.56022945e-01    0.00000000e+00
8 multi/harmonic    1.50000000e-01   -4.50000000e-01    0.00000000e+00    6.00000000e-01    0.00000000e+00
9 multi/harmonic    4.00000000e+00    0.00000000e+00   -4.00000000e+00    0.00000000e+00    0.00000000e+00
10 multi/harmonic    4.00000000e+00    0.00000000e+00   -4.00000000e+00    0.00000000e+00    0.00000000e+00
11 multi/harmonic   -5.70028681e-02    1.71008604e-01    0.00000000e+00   -2.28011472e-01    0.00000000e+00
12 multi/harmonic   -5.70028681e-02    1.71008604e-01    0.00000000e+00   -2.28011472e-01    0.00000000e+00
13 multi/harmonic   -8.00191205e-02    0.00000000e+00    8.00191205e-02    0.00000000e+00    0.00000000e+00
14 multi/harmonic   -2.80114723e-02    8.40344168e-02    0.00000000e+00   -1.12045889e-01    0.00000000e+00
15 multi/harmonic    7.00000000e+00    0.00000000e+00   -7.00000000e+00    0.00000000e+00    0.00000000e+00
16 multi/harmonic    7.00000000e+00    0.00000000e+00   -7.00000000e+00    0.00000000e+00    0.00000000e+00
17 multi/harmonic    7.00000000e+00    0.00000000e+00   -7.00000000e+00    0.00000000e+00    0.00000000e+00
18 multi/harmonic    7.00000000e+00    0.00000000e+00   -7.00000000e+00    0.00000000e+00    0.00000000e+00
19 multi/harmonic    7.00000000e+00    0.00000000e+00   -7.00000000e+00    0.00000000e+00    0.00000000e+00
20 multi/harmonic    4.00000000e+00    0.00000000e+00   -4.00000000e+00    0.00000000e+00    0.00000000e+00
21 multi/harmonic    4.00000000e+00    0.00000000e+00   -4.00000000e+00    0.00000000e+00    0.00000000e+00
22 multi/harmonic    7.00000000e+00    0.00000000e+00   -7.00000000e+00    0.00000000e+00    0.00000000e+00
23 multi/harmonic    7.00000000e+00    0.00000000e+00   -7.00000000e+00    0.00000000e+00    0.00000000e+00
24 multi/harmonic    7.00000000e+00    0.00000000e+00   -7.00000000e+00    0.00000000e+00    0.00000000e+00
25 multi/harmonic    7.00000000e+00    0.00000000e+00   -7.00000000e+00    0.00000000e+00    0.00000000e+00
26 multi/harmonic    7.00000000e+00    0.00000000e+00   -7.00000000e+00    0.00000000e+00    0.00000000e+00
27 multi/harmonic    7.00000000e+00    0.00000000e+00   -7.00000000e+00    0.00000000e+00    0.00000000e+00
28 multi/harmonic    7.00000000e+00    0.00000000e+00   -7.00000000e+00    0.00000000e+00    0.00000000e+00
29 multi/harmonic    4.00000000e+00    0.00000000e+00   -4.00000000e+00    0.00000000e+00    0.00000000e+00
30 multi/harmonic    4.00000000e+00    0.00000000e+00   -4.00000000e+00    0.00000000e+00    0.00000000e+00
31 multi/harmonic    7.00000000e+00    0.00000000e+00   -7.00000000e+00    0.00000000e+00    0.00000000e+00
32 multi/harmonic    7.00000000e+00    0.00000000e+00   -7.00000000e+00    0.00000000e+00    0.00000000e+00
33 multi/harmonic    4.00000000e+00    0.00000000e+00   -4.00000000e+00    0.00000000e+00    0.00000000e+00
34 multi/harmonic    4.00000000e+00    0.00000000e+00   -4.00000000e+00    0.00000000e+00    0.00000000e+00
35 multi/harmonic    4.00000000e+00    0.00000000e+00   -4.00000000e+00    0.00000000e+00    0.00000000e+00
36 multi/harmonic    4.00000000e+00    0.00000000e+00   -4.00000000e+00    0.00000000e+00    0.00000000e+00
37 multi/harmonic    7.00000000e+00    0.00000000e+00   -7.00000000e+00    0.00000000e+00    0.00000000e+00
38 multi/harmonic    7.00000000e+00    0.00000000e+00   -7.00000000e+00    0.00000000e+00    0.00000000e+00
39 multi/harmonic    4.00000000e+00    0.00000000e+00   -4.00000000e+00    0.00000000e+00    0.00000000e+00
40 multi/harmonic    1.42399618e+00    0.00000000e+00   -1.42399618e+00    0.00000000e+00    0.00000000e+00
41 multi/harmonic   -5.70028681e-02    1.71008604e-01    0.00000000e+00   -2.28011472e-01    0.00000000e+00
42 multi/harmonic   -5.70028681e-02    1.71008604e-01    0.00000000e+00   -2.28011472e-01    0.00000000e+00
43 multi/harmonic   -8.00191205e-02    0.00000000e+00    8.00191205e-02    0.00000000e+00    0.00000000e+00
44 multi/harmonic   -2.80114723e-02    8.40344168e-02    0.00000000e+00   -1.12045889e-01    0.00000000e+00
45 multi/harmonic    1.30000000e+00    0.00000000e+00   -1.30000000e+00    0.00000000e+00    0.00000000e+00
46 multi/harmonic    1.30000000e+00    0.00000000e+00   -1.30000000e+00    0.00000000e+00    0.00000000e+00
47 multi/harmonic    7.00000000e+00    0.00000000e+00   -7.00000000e+00    0.00000000e+00    0.00000000e+00
48 multi/harmonic    7.00000000e+00    0.00000000e+00   -7.00000000e+00    0.00000000e+00    0.00000000e+00
49 multi/harmonic    7.00000000e+00    0.00000000e+00   -7.00000000e+00    0.00000000e+00    0.00000000e+00
50 multi/harmonic    7.00000000e+00    0.00000000e+00   -7.00000000e+00    0.00000000e+00    0.00000000e+00
51 multi/harmonic    7.00000000e+00    0.00000000e+00   -7.00000000e+00    0.00000000e+00    0.00000000e+00
52 multi/harmonic    7.00000000e+00    0.00000000e+00   -7.00000000e+00    0.00000000e+00    0.00000000e+00
53 multi/harmonic    7.00000000e+00    0.00000000e+00   -7.00000000e+00    0.00000000e+00    0.00000000e+00
54 multi/harmonic    7.00000000e+00    0.00000000e+00   -7.00000000e+00    0.00000000e+00    0.00000000e+00
55 multi/harmonic    4.38197897e+00    0.00000000e+00   -4.38197897e+00    0.00000000e+00    0.00000000e+00
56 multi/harmonic    7.00000000e+00    0.00000000e+00   -7.00000000e+00    0.00000000e+00    0.00000000e+00
57 multi/harmonic    7.00000000e+00    0.00000000e+00   -7.00000000e+00    0.00000000e+00    0.00000000e+00
58 multi/harmonic    7.00000000e+00    0.00000000e+00   -7.00000000e+00    0.00000000e+00    0.00000000e+00
59 multi/harmonic    7.00000000e+00    0.00000000e+00   -7.00000000e+00    0.00000000e+00    0.00000000e+00
60 multi/harmonic    4.38197897e+00    0.00000000e+00   -4.38197897e+00    0.00000000e+00    0.00000000e+00
61 multi/harmonic    5.30114723e-02   -1.59034417e-01    0.00000000e+00    2.12045889e-01    0.00000000e+00
62 multi/harmonic    5.30114723e-02   -1.59034417e-01    0.00000000e+00    2.12045889e-01    0.00000000e+00
63 multi/harmonic    1.00000000e-01   -3.00000000e-01    0.00000000e+00    4.00000000e-01    0.00000000e+00
64 multi/harmonic    7.00000000e+00    0.00000000e+00   -7.00000000e+00    0.00000000e+00    0.00000000e+00
65 multi/harmonic    4.38197897e+00    0.00000000e+00   -4.38197897e+00    0.00000000e+00    0.00000000e+00
66 multi/harmonic    7.00000000e+00    0.00000000e+00   -7.00000000e+00    0.00000000e+00    0.00000000e+00
67 multi/harmonic    5.30114723e-02   -1.59034417e-01    0.00000000e+00    2.12045889e-01    0.00000000e+00
68 multi/harmonic    5.30114723e-02   -1.59034417e-01    0.00000000e+00    2.12045889e-01    0.00000000e+00
69 multi/harmonic    1.00000000e-01   -3.00000000e-01    0.00000000e+00    4.00000000e-01    0.00000000e+00
70 multi/harmonic    7.00000000e+00    0.00000000e+00   -7.00000000e+00    0.00000000e+00    0.00000000e+00
71 multi/harmonic    4.38197897e+00    0.00000000e+00   -4.38197897e+00    0.00000000e+00    0.00000000e+00
72 multi/harmonic    7.00000000e+00    0.00000000e+00   -7.00000000e+00    0.00000000e+00    0.00000000e+00
73 multi/harmonic    7.00000000e+00    0.00000000e+00   -7.00000000e+00    0.00000000e+00    0.00000000e+00
74 multi/harmonic    7.00000000e+00    0.00000000e+00   -7.00000000e+00    0.00000000e+00    0.00000000e+00
75 multi/harmonic    7.00000000e+00    0.00000000e+00   -7.00000000e+00    0.00000000e+00    0.00000000e+00
76 multi/harmonic    7.00000000e+00    0.00000000e+00   -7.00000000e+00    0.00000000e+00    0.00000000e+00
77 multi/harmonic    1.41993308e-01    1.41993308e-01    0.00000000e+00    0.00000000e+00    0.00000000e+00
78 multi/harmonic   -1.38599426e+00    0.00000000e+00    1.38599426e+00    0.00000000e+00    0.00000000e+00
79 multi/harmonic    1.57002868e-01   -4.71008604e-01    0.00000000e+00    6.28011472e-01    0.00000000e+00
80 multi/harmonic    1.41993308e-01    1.41993308e-01    0.00000000e+00    0.00000000e+00    0.00000000e+00
81 multi/harmonic   -1.38599426e+00    0.00000000e+00    1.38599426e+00    0.00000000e+00    0.00000000e+00
82 multi/harmonic    1.57002868e-01   -4.71008604e-01    0.00000000e+00    6.28011472e-01    0.00000000e+00
83 multi/harmonic    3.20004780e-01    3.20004780e-01    0.00000000e+00    0.00000000e+00    0.00000000e+00
84 multi/harmonic   -6.30019120e-01    0.00000000e+00    6.30019120e-01    0.00000000e+00    0.00000000e+00
85 multi/harmonic    1.32002868e-01   -3.96008604e-01    0.00000000e+00    5.28011472e-01    0.00000000e+00
86 multi/harmonic    1.41993308e-01    1.41993308e-01    0.00000000e+00    0.00000000e+00    0.00000000e+00
87 multi/harmonic   -1.38599426e+00    0.00000000e+00    1.38599426e+00    0.00000000e+00    0.00000000e+00
88 multi/harmonic    1.57002868e-01   -4.71008604e-01    0.00000000e+00    6.28011472e-01    0.00000000e+00
89 multi/harmonic    1.57002868e-01   -4.71008604e-01    0.00000000e+00    6.28011472e-01    0.00000000e+00
90 multi/harmonic    1.41993308e-01    1.41993308e-01    0.00000000e+00    0.00000000e+00    0.00000000e+00
91 multi/harmonic   -1.38599426e+00    0.00000000e+00    1.38599426e+00    0.00000000e+00    0.00000000e+00
92 multi/harmonic    1.41993308e-01    1.41993308e-01    0.00000000e+00    0.00000000e+00    0.00000000e+00
93 multi/harmonic   -1.38599426e+00    0.00000000e+00    1.38599426e+00    0.00000000e+00    0.00000000e+00
94 multi/harmonic    1.57002868e-01   -4.71008604e-01    0.00000000e+00    6.28011472e-01    0.00000000e+00
95 multi/harmonic   -3.71988528e-01   -3.71988528e-01    0.00000000e+00    0.00000000e+00    0.00000000e+00
96 multi/harmonic   -1.23398662e+00    0.00000000e+00    1.23398662e+00    0.00000000e+00    0.00000000e+00
97 multi/harmonic    1.69000956e-01   -5.07002868e-01    0.00000000e+00    6.76003824e-01    0.00000000e+00
98 multi/harmonic    7.00000000e+00    0.00000000e+00   -7.00000000e+00    0.00000000e+00    0.00000000e+00
99 multi/harmonic    7.00000000e+00    0.00000000e+00   -7.00000000e+00    0.00000000e+00    0.00000000e+00
100 multi/harmonic    1.41993308e-01    1.41993308e-01    0.00000000e+00    0.00000000e+00    0.00000000e+00
101 multi/harmonic   -1.38599426e+00    0.00000000e+00    1.38599426e+00    0.00000000e+00    0.00000000e+00
102 multi/harmonic    1.57002868e-01   -4.71008604e-01    0.00000000e+00    6.28011472e-01    0.00000000e+00
103 multi/harmonic    3.20004780e-01    3.20004780e-01    0.00000000e+00    0.00000000e+00    0.00000000e+00
104 multi/harmonic   -6.30019120e-01    0.00000000e+00    6.30019120e-01    0.00000000e+00    0.00000000e+00
105 multi/harmonic    1.32002868e-01   -3.96008604e-01    0.00000000e+00    5.28011472e-01    0.00000000e+00
106 multi/harmonic   -7.60038241e-02   -7.60038241e-02    0.00000000e+00    0.00000000e+00    0.00000000e+00
107 multi/harmonic   -4.40009560e-01    0.00000000e+00    4.40009560e-01    0.00000000e+00    0.00000000e+00
108 multi/harmonic    1.78011472e-01   -5.34034417e-01    0.00000000e+00    7.12045889e-01    0.00000000e+00
109 multi/harmonic   -7.60038241e-02   -7.60038241e-02    0.00000000e+00    0.00000000e+00    0.00000000e+00
110 multi/harmonic   -4.40009560e-01    0.00000000e+00    4.40009560e-01    0.00000000e+00    0.00000000e+00
111 multi/harmonic    1.78011472e-01   -5.34034417e-01    0.00000000e+00    7.12045889e-01    0.00000000e+00
112 multi/harmonic   -2.14005736e-01   -2.14005736e-01    0.00000000e+00    0.00000000e+00    0.00000000e+00
113 multi/harmonic    3.23996176e-01    0.00000000e+00   -3.23996176e-01    0.00000000e+00    0.00000000e+00
114 multi/harmonic    1.40009560e-01   -4.20028681e-01    0.00000000e+00    5.60038241e-01    0.00000000e+00
115 multi/harmonic   -7.60038241e-02   -7.60038241e-02    0.00000000e+00    0.00000000e+00    0.00000000e+00
116 multi/harmonic   -4.40009560e-01    0.00000000e+00    4.40009560e-01    0.00000000e+00    0.00000000e+00
117 multi/harmonic    1.78011472e-01   -5.34034417e-01    0.00000000e+00    7.12045889e-01    0.00000000e+00
118 multi/harmonic   -2.14005736e-01   -2.14005736e-01    0.00000000e+00    0.00000000e+00    0.00000000e+00
119 multi/harmonic    3.23996176e-01    0.00000000e+00   -3.23996176e-01    0.00000000e+00    0.00000000e+00
120 multi/harmonic    1.40009560e-01   -4.20028681e-01    0.00000000e+00    5.60038241e-01    0.00000000e+00
121 multi/harmonic   -2.14005736e-01   -2.14005736e-01    0.00000000e+00    0.00000000e+00    0.00000000e+00
122 multi/harmonic    3.23996176e-01    0.00000000e+00   -3.23996176e-01    0.00000000e+00    0.00000000e+00
123 multi/harmonic    1.40009560e-01   -4.20028681e-01    0.00000000e+00    5.60038241e-01    0.00000000e+00
124 multi/harmonic    1.57002868e-01   -4.71008604e-01    0.00000000e+00    6.28011472e-01    0.00000000e+00
125 multi/harmonic    1.41993308e-01    1.41993308e-01    0.00000000e+00    0.00000000e+00    0.00000000e+00
126 multi/harmonic   -1.38599426e+00    0.00000000e+00    1.38599426e+00    0.00000000e+00    0.00000000e+00
127 multi/harmonic    3.20004780e-01    3.20004780e-01    0.00000000e+00    0.00000000e+00    0.00000000e+00
128 multi/harmonic   -6.30019120e-01    0.00000000e+00    6.30019120e-01    0.00000000e+00    0.00000000e+00
129 multi/harmonic    1.32002868e-01   -3.96008604e-01    0.00000000e+00    5.28011472e-01    0.00000000e+00
130 multi/harmonic    1.96988528e-01    1.96988528e-01    0.00000000e+00    0.00000000e+00    0.00000000e+00
131 multi/harmonic   -3.85994264e-01    0.00000000e+00    3.85994264e-01    0.00000000e+00    0.00000000e+00
132 multi/harmonic    2.80999044e-01   -8.42997132e-01    0.00000000e+00    1.12399618e+00    0.00000000e+00
133 multi/harmonic    1.41993308e-01    1.41993308e-01    0.00000000e+00    0.00000000e+00    0.00000000e+00
134 multi/harmonic   -1.38599426e+00    0.00000000e+00    1.38599426e+00    0.00000000e+00    0.00000000e+00
135 multi/harmonic    1.57002868e-01   -4.71008604e-01    0.00000000e+00    6.28011472e-01    0.00000000e+00
136 multi/harmonic    3.20004780e-01    3.20004780e-01    0.00000000e+00    0.00000000e+00    0.00000000e+00
137 multi/harmonic   -6.30019120e-01    0.00000000e+00    6.30019120e-01    0.00000000e+00    0.00000000e+00
138 multi/harmonic    1.32002868e-01   -3.96008604e-01    0.00000000e+00    5.28011472e-01    0.00000000e+00
139 multi/harmonic    1.96988528e-01    1.96988528e-01    0.00000000e+00    0.00000000e+00    0.00000000e+00
140 multi/harmonic   -3.85994264e-01    0.00000000e+00    3.85994264e-01    0.00000000e+00    0.00000000e+00
141 multi/harmonic    2.80999044e-01   -8.42997132e-01    0.00000000e+00    1.12399618e+00    0.00000000e+00
142 multi/harmonic   -3.71988528e-01   -3.71988528e-01    0.00000000e+00    0.00000000e+00    0.00000000e+00
143 multi/harmonic   -1.23398662e+00    0.00000000e+00    1.23398662e+00    0.00000000e+00    0.00000000e+00
144 multi/harmonic    1.69000956e-01   -5.07002868e-01    0.00000000e+00    6.76003824e-01    0.00000000e+00
145 multi/harmonic    1.41993308e-01    1.41993308e-01    0.00000000e+00    0.00000000e+00    0.00000000e+00
146 multi/harmonic   -1.38599426e+00    0.00000000e+00    1.38599426e+00    0.00000000e+00    0.00000000e+00
147 multi/harmonic    1.57002868e-01   -4.71008604e-01    0.00000000e+00    6.28011472e-01    0.00000000e+00
148 multi/harmonic   -1.23398662e+00    0.00000000e+00    1.23398662e+00    0.00000000e+00    0.00000000e+00
149 multi/harmonic    1.69000956e-01   -5.07002868e-01    0.00000000e+00    6.76003824e-01    0.00000000e+00
150 multi/harmonic   -3.71988528e-01   -3.71988528e-01    0.00000000e+00    0.00000000e+00    0.00000000e+00
151 multi/harmonic    3.20004780e-01    3.20004780e-01    0.00000000e+00    0.00000000e+00    0.00000000e+00
152 multi/harmonic   -6.30019120e-01    0.00000000e+00    6.30019120e-01    0.00000000e+00    0.00000000e+00
153 multi/harmonic    1.32002868e-01   -3.96008604e-01    0.00000000e+00    5.28011472e-01    0.00000000e+00
154 multi/harmonic    1.41993308e-01    1.41993308e-01    0.00000000e+00    0.00000000e+00    0.00000000e+00
155 multi/harmonic   -1.38599426e+00    0.00000000e+00    1.38599426e+00    0.00000000e+00    0.00000000e+00
156 multi/harmonic    1.57002868e-01   -4.71008604e-01    0.00000000e+00    6.28011472e-01    0.00000000e+00
157 multi/harmonic   -3.71988528e-01   -3.71988528e-01    0.00000000e+00    0.00000000e+00    0.00000000e+00
158 multi/harmonic   -1.23398662e+00    0.00000000e+00    1.23398662e+00    0.00000000e+00    0.00000000e+00
159 multi/harmonic    1.69000956e-01   -5.07002868e-01    0.00000000e+00    6.76003824e-01    0.00000000e+00
160 multi/harmonic    3.20004780e-01    3.20004780e-01    0.00000000e+00    0.00000000e+00    0.00000000e+00
161 multi/harmonic   -6.30019120e-01    0.00000000e+00    6.30019120e-01    0.00000000e+00    0.00000000e+00
162 multi/harmonic    1.32002868e-01   -3.96008604e-01    0.00000000e+00    5.28011472e-01    0.00000000e+00
163 multi/harmonic    1.41993308e-01    1.41993308e-01    0.00000000e+00    0.00000000e+00    0.00000000e+00
164 multi/harmonic   -1.38599426e+00    0.00000000e+00    1.38599426e+00    0.00000000e+00    0.00000000e+00
165 multi/harmonic    1.57002868e-01   -4.71008604e-01    0.00000000e+00    6.28011472e-01    0.00000000e+00
166 multi/harmonic   -3.71988528e-01   -3.71988528e-01    0.00000000e+00    0.00000000e+00    0.00000000e+00
167 multi/harmonic   -1.23398662e+00    0.00000000e+00    1.23398662e+00    0.00000000e+00    0.00000000e+00
168 multi/harmonic    1.69000956e-01   -5.07002868e-01    0.00000000e+00    6.76003824e-01    0.00000000e+00
169 multi/harmonic    1.32002868e-01   -3.96008604e-01    0.00000000e+00    5.28011472e-01    0.00000000e+00
170 multi/harmonic    3.20004780e-01    3.20004780e-01    0.00000000e+00    0.00000000e+00    0.00000000e+00
171 multi/harmonic   -6.30019120e-01    0.00000000e+00    6.30019120e-01    0.00000000e+00    0.00000000e+00
172 multi/harmonic    1.96988528e-01    1.96988528e-01    0.00000000e+00    0.00000000e+00    0.00000000e+00
173 multi/harmonic   -3.85994264e-01    0.00000000e+00    3.85994264e-01    0.00000000e+00    0.00000000e+00
174 multi/harmonic    2.80999044e-01   -8.42997132e-01    0.00000000e+00    1.12399618e+00    0.00000000e+00
175 multi/harmonic    1.41993308e-01    1.41993308e-01    0.00000000e+00    0.00000000e+00    0.00000000e+00
176 multi/harmonic   -1.38599426e+00    0.00000000e+00    1.38599426e+00    0.00000000e+00    0.00000000e+00
177 multi/harmonic    1.57002868e-01   -4.71008604e-01    0.00000000e+00    6.28011472e-01    0.00000000e+00
178 multi/harmonic    1.41993308e-01    1.41993308e-01    0.00000000e+00    0.00000000e+00    0.00000000e+00
179 multi/harmonic   -1.38599426e+00    0.00000000e+00    1.38599426e+00    0.00000000e+00    0.00000000e+00
180 multi/harmonic    1.57002868e-01   -4.71008604e-01    0.00000000e+00    6.28011472e-01    0.00000000e+00
181 multi/harmonic    1.57002868e-01   -4.71008604e-01    0.00000000e+00    6.28011472e-01    0.00000000e+00
182 multi/harmonic    1.41993308e-01    1.41993308e-01    0.00000000e+00    0.00000000e+00    0.00000000e+00
183 multi/harmonic   -1.38599426e+00    0.00000000e+00    1.38599426e+00    0.00000000e+00    0.00000000e+00
184 multi/harmonic   -3.71988528e-01   -3.71988528e-01    0.00000000e+00    0.00000000e+00    0.00000000e+00
185 multi/harmonic   -1.23398662e+00    0.00000000e+00    1.23398662e+00    0.00000000e+00    0.00000000e+00
186 multi/harmonic    1.69000956e-01   -5.07002868e-01    0.00000000e+00    6.76003824e-01    0.00000000e+00
187 multi/harmonic    3.20004780e-01    3.20004780e-01    0.00000000e+00    0.00000000e+00    0.00000000e+00
188 multi/harmonic   -6.30019120e-01    0.00000000e+00    6.30019120e-01    0.00000000e+00    0.00000000e+00
189 multi/harmonic    1.32002868e-01   -3.96008604e-01    0.00000000e+00    5.28011472e-01    0.00000000e+00
190 multi/harmonic   -3.71988528e-01   -3.71988528e-01    0.00000000e+00    0.00000000e+00    0.00000000e+00
191 multi/harmonic   -1.23398662e+00    0.00000000e+00    1.23398662e+00    0.00000000e+00    0.00000000e+00
192 multi/harmonic    1.69000956e-01   -5.07002868e-01    0.00000000e+00    6.76003824e-01    0.00000000e+00
193 multi/harmonic    1.32002868e-01   -3.96008604e-01    0.00000000e+00    5.28011472e-01    0.00000000e+00
194 multi/harmonic    3.20004780e-01    3.20004780e-01    0.00000000e+00    0.00000000e+00    0.00000000e+00
195 multi/harmonic   -6.30019120e-01    0.00000000e+00    6.30019120e-01    0.00000000e+00    0.00000000e+00
196 multi/harmonic   -3.71988528e-01   -3.71988528e-01    0.00000000e+00    0.00000000e+00    0.00000000e+00
197 multi/harmonic   -1.23398662e+00    0.00000000e+00    1.23398662e+00    0.00000000e+00    0.00000000e+00
198 multi/harmonic    1.69000956e-01   -5.07002868e-01    0.00000000e+00    6.76003824e-01    0.00000000e+00
199 multi/harmonic    3.20004780e-01    3.20004780e-01    0.00000000e+00    0.00000000e+00    0.00000000e+00
200 multi/harmonic   -6.30019120e-01    0.00000000e+00    6.30019120e-01    0.00000000e+00    0.00000000e+00
201 multi/harmonic    1.32002868e-01   -3.96008604e-01    0.00000000e+00    5.28011472e-01    0.00000000e+00
202 multi/harmonic    4.00000000e+00    0.00000000e+00   -4.00000000e+00    0.00000000e+00    0.00000000e+00
203 multi/harmonic   -7.09990440e-01   -7.09990440e-01    0.00000000e+00    0.00000000e+00    0.00000000e+00
204 multi/harmonic   -9.20172084e-02    0.00000000e+00    9.20172084e-02    0.00000000e+00    0.00000000e+00
205 multi/harmonic    5.50000000e-01   -1.65000000e+00    0.00000000e+00    2.20000000e+00    0.00000000e+00
206 multi/harmonic   -2.20004780e-01   -2.20004780e-01    0.00000000e+00    0.00000000e+00    0.00000000e+00
207 multi/harmonic    7.85994264e-01    0.00000000e+00   -7.85994264e-01    0.00000000e+00    0.00000000e+00
208 multi/harmonic    1.35994264e-01   -4.07982792e-01    0.00000000e+00    5.43977055e-01    0.00000000e+00