Untitled

50 atoms
53 bonds
95 angles
297 dihedrals
29 impropers

11 atom types
53 bond types
95 angle types
297 dihedral types
29 improper types

-19.6900000 -19.6900000 xlo xhi
203.8700000 203.8700000 ylo yhi
109.1500000 109.1500000 zlo zhi
  0.0000000   0.0000000   0.0000000 xy xz yz

Masses

1  12.0110000
2  14.0067000
3  12.0110000
4   1.0079000
5   1.0079000
6  12.0110000
7  14.0067000
8  14.0067000
9  32.0660000
10  15.9994000
11  15.9994000

Bond Coeffs

1 harmonic    4.51443953e+02    1.36400000e+00
2 harmonic    4.51443953e+02    1.36400000e+00
3 harmonic    4.39714030e+02    1.37000000e+00
4 harmonic    4.51443953e+02    1.36400000e+00
5 harmonic    3.17946941e+02    1.48900000e+00
6 harmonic    4.17475980e+02    1.35500000e+00
7 harmonic    3.17946941e+02    1.48900000e+00
8 harmonic    4.51443953e+02    1.36400000e+00
9 harmonic    4.51443953e+02    1.36400000e+00
10 harmonic    4.01067997e+02    1.37400000e+00
11 harmonic    4.01067997e+02    1.37400000e+00
12 harmonic    4.01067997e+02    1.37400000e+00
13 harmonic    2.36121056e+02    1.77000000e+00
14 harmonic    4.01067997e+02    1.37400000e+00
15 harmonic    4.01067997e+02    1.37400000e+00
16 harmonic    4.01067997e+02    1.37400000e+00
17 harmonic    3.42991037e+02    1.09300000e+00
18 harmonic    3.42991037e+02    1.09300000e+00
19 harmonic    3.42991037e+02    1.09300000e+00
20 harmonic    4.50869025e+02    1.02800000e+00
21 harmonic    3.42991037e+02    1.09300000e+00
22 harmonic    3.42991037e+02    1.09300000e+00
23 harmonic    3.81853011e+02    1.08400000e+00
24 harmonic    3.81853011e+02    1.08400000e+00
25 harmonic    3.42991037e+02    1.09300000e+00
26 harmonic    4.73250000e+02    1.01800000e+00
27 harmonic    4.50869025e+02    1.02800000e+00
28 harmonic    3.42991037e+02    1.09300000e+00
29 harmonic    3.42991037e+02    1.09300000e+00
30 harmonic    3.81853011e+02    1.08400000e+00
31 harmonic    3.42991037e+02    1.09300000e+00
32 harmonic    3.42991037e+02    1.09300000e+00
33 harmonic    3.42991037e+02    1.09300000e+00
34 harmonic    3.42991037e+02    1.09300000e+00
35 harmonic    3.42991037e+02    1.09300000e+00
36 harmonic    3.42991037e+02    1.09300000e+00
37 harmonic    3.42991037e+02    1.09300000e+00
38 harmonic    3.81853011e+02    1.08400000e+00
39 harmonic    3.42774976e+02    1.45800000e+00
40 harmonic    3.42774976e+02    1.45800000e+00
41 harmonic    4.51443953e+02    1.36400000e+00
42 harmonic    4.43888026e+02    1.39800000e+00
43 harmonic    2.37560946e+02    1.71000000e+00
44 harmonic    7.73492949e+02    1.45000000e+00
45 harmonic    7.73492949e+02    1.45000000e+00
46 harmonic    3.63214030e+02    1.41800000e+00
47 harmonic    3.06432003e+02    1.50800000e+00
48 harmonic    3.06432003e+02    1.50800000e+00
49 harmonic    3.06432003e+02    1.50800000e+00
50 harmonic    3.06432003e+02    1.50800000e+00
51 harmonic    3.06432003e+02    1.50800000e+00
52 harmonic    3.06432003e+02    1.50800000e+00
53 harmonic    3.06432003e+02    1.50800000e+00

Angle Coeffs

1 harmonic    8.66467495e+01    1.11488000e+02
2 harmonic    8.66467495e+01    1.11488000e+02
3 harmonic    7.59954589e+01    1.16655000e+02
4 harmonic    5.03764340e+01    1.14808000e+02
5 harmonic    8.05305927e+01    1.20094000e+02
6 harmonic    7.32612333e+01    1.24152000e+02
7 harmonic    7.55640535e+01    1.15704000e+02
8 harmonic    9.17554971e+01    1.19478000e+02
9 harmonic    5.91563098e+01    1.21775000e+02
10 harmonic    7.55640535e+01    1.15704000e+02
11 harmonic    6.64244742e+01    1.08055000e+02
12 harmonic    6.72884799e+01    1.03030000e+02
13 harmonic    7.55640535e+01    1.15704000e+02
14 harmonic    7.55640535e+01    1.15704000e+02
15 harmonic    6.31859465e+01    1.06409000e+02
16 harmonic    7.55640535e+01    1.15704000e+02
17 harmonic    6.31859465e+01    1.06409000e+02
18 harmonic    7.32612333e+01    1.24152000e+02
19 harmonic    8.05305927e+01    1.20094000e+02
20 harmonic    4.81453155e+01    1.19977000e+02
21 harmonic    7.40535373e+01    1.13991000e+02
22 harmonic    4.81453155e+01    1.19977000e+02
23 harmonic    4.05174474e+01    1.20571000e+02
24 harmonic    4.81453155e+01    1.19977000e+02
25 harmonic    4.05174474e+01    1.20571000e+02
26 harmonic    4.81453155e+01    1.19977000e+02
27 harmonic    4.05174474e+01    1.20571000e+02
28 harmonic    1.01902486e+02    9.92000000e+01
29 harmonic    1.07733031e+02    1.05280000e+02
30 harmonic    1.07733031e+02    1.05280000e+02
31 harmonic    7.40535373e+01    1.13991000e+02
32 harmonic    4.81453155e+01    1.19977000e+02
33 harmonic    4.05174474e+01    1.20571000e+02
34 harmonic    4.05174474e+01    1.20571000e+02
35 harmonic    4.81453155e+01    1.19977000e+02
36 harmonic    7.52043499e+01    1.21633000e+02
37 harmonic    4.05174474e+01    1.20571000e+02
38 harmonic    4.05174474e+01    1.20571000e+02
39 harmonic    4.76410134e+01    1.10288000e+02
40 harmonic    4.05174474e+01    1.20571000e+02
41 harmonic    7.52043499e+01    1.21633000e+02
42 harmonic    3.71343212e+01    1.08836000e+02
43 harmonic    4.57695985e+01    1.10549000e+02
44 harmonic    4.57695985e+01    1.10549000e+02
45 harmonic    4.57695985e+01    1.10549000e+02
46 harmonic    4.57695985e+01    1.10549000e+02
47 harmonic    3.71343212e+01    1.08836000e+02
48 harmonic    4.57695985e+01    1.10549000e+02
49 harmonic    4.57695985e+01    1.10549000e+02
50 harmonic    3.43283939e+01    1.12596000e+02
51 harmonic    4.51935946e+01    1.16881000e+02
52 harmonic    4.57695985e+01    1.10549000e+02
53 harmonic    4.57695985e+01    1.10549000e+02
54 harmonic    3.71343212e+01    1.08836000e+02
55 harmonic    5.27509560e+01    1.09894000e+02
56 harmonic    5.27509560e+01    1.09894000e+02
57 harmonic    3.71343212e+01    1.08836000e+02
58 harmonic    5.62045889e+01    1.08577000e+02
59 harmonic    4.57695985e+01    1.10549000e+02
60 harmonic    4.51935946e+01    1.16881000e+02
61 harmonic    5.27509560e+01    1.09894000e+02
62 harmonic    5.27509560e+01    1.09894000e+02
63 harmonic    5.62045889e+01    1.08577000e+02
64 harmonic    4.57695985e+01    1.10549000e+02
65 harmonic    3.71343212e+01    1.08836000e+02
66 harmonic    4.57695985e+01    1.10549000e+02
67 harmonic    4.57695985e+01    1.10549000e+02
68 harmonic    4.57695985e+01    1.10549000e+02
69 harmonic    4.57695985e+01    1.10549000e+02
70 harmonic    4.57695985e+01    1.10549000e+02
71 harmonic    4.57695985e+01    1.10549000e+02
72 harmonic    4.57695985e+01    1.10549000e+02
73 harmonic    3.71343212e+01    1.08836000e+02
74 harmonic    4.57695985e+01    1.10549000e+02
75 harmonic    4.57695985e+01    1.10549000e+02
76 harmonic    3.71343212e+01    1.08836000e+02
77 harmonic    4.57695985e+01    1.10549000e+02
78 harmonic    4.57695985e+01    1.10549000e+02
79 harmonic    4.57695985e+01    1.10549000e+02
80 harmonic    4.57695985e+01    1.10549000e+02
81 harmonic    4.57695985e+01    1.10549000e+02
82 harmonic    4.57695985e+01    1.10549000e+02
83 harmonic    7.19658222e+01    1.09500000e+02
84 harmonic    1.12913480e+02    1.08548000e+02
85 harmonic    1.12913480e+02    1.08548000e+02
86 harmonic    1.12913480e+02    1.20924000e+02
87 harmonic    7.13898184e+01    1.08133000e+02
88 harmonic    6.12428298e+01    1.09608000e+02
89 harmonic    6.12428298e+01    1.09608000e+02
90 harmonic    6.12428298e+01    1.09608000e+02
91 harmonic    6.12428298e+01    1.09608000e+02
92 harmonic    6.12428298e+01    1.09608000e+02
93 harmonic    6.12428298e+01    1.09608000e+02
94 harmonic    6.12428298e+01    1.09608000e+02
95 harmonic    6.12428298e+01    1.09608000e+02

Dihedral Coeffs

1 multi/harmonic    1.80000000e+00    0.00000000e+00   -1.80000000e+00    0.00000000e+00    0.00000000e+00
2 multi/harmonic    1.80000000e+00    0.00000000e+00   -1.80000000e+00    0.00000000e+00    0.00000000e+00
3 multi/harmonic    1.80000000e+00    0.00000000e+00   -1.80000000e+00    0.00000000e+00    0.00000000e+00
4 multi/harmonic    1.60000000e+01    0.00000000e+00   -1.60000000e+01    0.00000000e+00    0.00000000e+00
5 multi/harmonic    4.00000000e+00    0.00000000e+00   -4.00000000e+00    0.00000000e+00    0.00000000e+00
6 multi/harmonic    4.00000000e+00    0.00000000e+00   -4.00000000e+00    0.00000000e+00    0.00000000e+00
7 multi/harmonic    1.60000000e+01    0.00000000e+00   -1.60000000e+01    0.00000000e+00    0.00000000e+00
8 multi/harmonic    3.60000000e+00    0.00000000e+00   -3.60000000e+00    0.00000000e+00    0.00000000e+00
9 multi/harmonic    3.60000000e+00    0.00000000e+00   -3.60000000e+00    0.00000000e+00    0.00000000e+00
10 multi/harmonic    6.00000000e-01    0.00000000e+00   -6.00000000e-01    0.00000000e+00    0.00000000e+00
11 multi/harmonic    6.00000000e-01    0.00000000e+00   -6.00000000e-01    0.00000000e+00    0.00000000e+00
12 multi/harmonic    5.50000000e+00    0.00000000e+00   -5.50000000e+00    0.00000000e+00    0.00000000e+00
13 multi/harmonic    1.60000000e+01    0.00000000e+00   -1.60000000e+01    0.00000000e+00    0.00000000e+00
14 multi/harmonic    1.60000000e+01    0.00000000e+00   -1.60000000e+01    0.00000000e+00    0.00000000e+00
15 multi/harmonic    6.00000000e-01    0.00000000e+00   -6.00000000e-01    0.00000000e+00    0.00000000e+00
16 multi/harmonic    6.00000000e-01    0.00000000e+00   -6.00000000e-01    0.00000000e+00    0.00000000e+00
17 multi/harmonic    1.80000000e+00    0.00000000e+00   -1.80000000e+00    0.00000000e+00    0.00000000e+00
18 multi/harmonic    2.85994264e-01    2.85994264e-01    0.00000000e+00    0.00000000e+00    0.00000000e+00
19 multi/harmonic   -1.52007648e-01    4.56022945e-01    0.00000000e+00   -6.08030593e-01    0.00000000e+00
20 multi/harmonic    2.85994264e-01    2.85994264e-01    0.00000000e+00    0.00000000e+00    0.00000000e+00
21 multi/harmonic   -1.52007648e-01    4.56022945e-01    0.00000000e+00   -6.08030593e-01    0.00000000e+00
22 multi/harmonic   -2.73996176e-01   -2.73996176e-01    0.00000000e+00    0.00000000e+00    0.00000000e+00
23 multi/harmonic    1.59990440e-01   -4.79971319e-01    0.00000000e+00    6.39961759e-01    0.00000000e+00
24 multi/harmonic    5.50000000e+00    0.00000000e+00   -5.50000000e+00    0.00000000e+00    0.00000000e+00
25 multi/harmonic    1.80000000e+00    0.00000000e+00   -1.80000000e+00    0.00000000e+00    0.00000000e+00
26 multi/harmonic   -3.35994264e-01    0.00000000e+00    3.35994264e-01    0.00000000e+00    0.00000000e+00
27 multi/harmonic   -1.76003824e-01    5.28011472e-01    0.00000000e+00   -7.04015296e-01    0.00000000e+00
28 multi/harmonic    1.02007648e-01    1.02007648e-01    0.00000000e+00    0.00000000e+00    0.00000000e+00
29 multi/harmonic    1.02007648e-01    1.02007648e-01    0.00000000e+00    0.00000000e+00    0.00000000e+00
30 multi/harmonic   -3.35994264e-01    0.00000000e+00    3.35994264e-01    0.00000000e+00    0.00000000e+00
31 multi/harmonic   -1.76003824e-01    5.28011472e-01    0.00000000e+00   -7.04015296e-01    0.00000000e+00
32 multi/harmonic    6.00000000e-01    0.00000000e+00   -6.00000000e-01    0.00000000e+00    0.00000000e+00
33 multi/harmonic    1.80000000e+00    0.00000000e+00   -1.80000000e+00    0.00000000e+00    0.00000000e+00
34 multi/harmonic    1.60000000e+01    0.00000000e+00   -1.60000000e+01    0.00000000e+00    0.00000000e+00
35 multi/harmonic    1.02007648e-01    1.02007648e-01    0.00000000e+00    0.00000000e+00    0.00000000e+00
36 multi/harmonic   -3.35994264e-01    0.00000000e+00    3.35994264e-01    0.00000000e+00    0.00000000e+00
37 multi/harmonic   -1.76003824e-01    5.28011472e-01    0.00000000e+00   -7.04015296e-01    0.00000000e+00
38 multi/harmonic   -3.35994264e-01    0.00000000e+00    3.35994264e-01    0.00000000e+00    0.00000000e+00
39 multi/harmonic   -1.76003824e-01    5.28011472e-01    0.00000000e+00   -7.04015296e-01    0.00000000e+00
40 multi/harmonic    1.02007648e-01    1.02007648e-01    0.00000000e+00    0.00000000e+00    0.00000000e+00
41 multi/harmonic    3.60000000e+00    0.00000000e+00   -3.60000000e+00    0.00000000e+00    0.00000000e+00
42 multi/harmonic    3.60000000e+00    0.00000000e+00   -3.60000000e+00    0.00000000e+00    0.00000000e+00
43 multi/harmonic    6.00000000e-01    0.00000000e+00   -6.00000000e-01    0.00000000e+00    0.00000000e+00
44 multi/harmonic    1.80000000e+00    0.00000000e+00   -1.80000000e+00    0.00000000e+00    0.00000000e+00
45 multi/harmonic    7.00000000e+00    0.00000000e+00   -7.00000000e+00    0.00000000e+00    0.00000000e+00
46 multi/harmonic    7.00000000e+00    0.00000000e+00   -7.00000000e+00    0.00000000e+00    0.00000000e+00
47 multi/harmonic    1.14005736e-01    1.14005736e-01    0.00000000e+00    0.00000000e+00    0.00000000e+00
48 multi/harmonic   -1.74201721e+00    0.00000000e+00    1.74201721e+00    0.00000000e+00    0.00000000e+00
49 multi/harmonic   -1.84990440e-01    5.54971319e-01    0.00000000e+00   -7.39961759e-01    0.00000000e+00
50 multi/harmonic   -8.59942639e-02   -8.59942639e-02    0.00000000e+00    0.00000000e+00    0.00000000e+00
51 multi/harmonic   -9.64005736e-01    0.00000000e+00    9.64005736e-01    0.00000000e+00    0.00000000e+00
52 multi/harmonic   -3.04995220e-01    9.14985660e-01    0.00000000e+00   -1.21998088e+00    0.00000000e+00
53 multi/harmonic   -8.59942639e-02   -8.59942639e-02    0.00000000e+00    0.00000000e+00    0.00000000e+00
54 multi/harmonic   -9.64005736e-01    0.00000000e+00    9.64005736e-01    0.00000000e+00    0.00000000e+00
55 multi/harmonic   -3.04995220e-01    9.14985660e-01    0.00000000e+00   -1.21998088e+00    0.00000000e+00
56 multi/harmonic    7.00000000e+00    0.00000000e+00   -7.00000000e+00    0.00000000e+00    0.00000000e+00
57 multi/harmonic    7.00000000e+00    0.00000000e+00   -7.00000000e+00    0.00000000e+00    0.00000000e+00
58 multi/harmonic    7.00000000e+00    0.00000000e+00   -7.00000000e+00    0.00000000e+00    0.00000000e+00
59 multi/harmonic    7.00000000e+00    0.00000000e+00   -7.00000000e+00    0.00000000e+00    0.00000000e+00
60 multi/harmonic    7.00000000e+00    0.00000000e+00   -7.00000000e+00    0.00000000e+00    0.00000000e+00
61 multi/harmonic    7.00000000e+00    0.00000000e+00   -7.00000000e+00    0.00000000e+00    0.00000000e+00
62 multi/harmonic   -1.00700287e+00   -1.00700287e+00    0.00000000e+00    0.00000000e+00    0.00000000e+00
63 multi/harmonic   -1.64598470e+00    0.00000000e+00    1.64598470e+00    0.00000000e+00    0.00000000e+00
64 multi/harmonic   -1.03401052e+00    3.10203155e+00    0.00000000e+00   -4.13604207e+00    0.00000000e+00
65 multi/harmonic   -1.00700287e+00   -1.00700287e+00    0.00000000e+00    0.00000000e+00    0.00000000e+00
66 multi/harmonic   -1.64598470e+00    0.00000000e+00    1.64598470e+00    0.00000000e+00    0.00000000e+00
67 multi/harmonic   -1.03401052e+00    3.10203155e+00    0.00000000e+00   -4.13604207e+00    0.00000000e+00
68 multi/harmonic    7.00000000e+00    0.00000000e+00   -7.00000000e+00    0.00000000e+00    0.00000000e+00
69 multi/harmonic    7.00000000e+00    0.00000000e+00   -7.00000000e+00    0.00000000e+00    0.00000000e+00
70 multi/harmonic    1.14005736e-01    1.14005736e-01    0.00000000e+00    0.00000000e+00    0.00000000e+00
71 multi/harmonic   -1.74201721e+00    0.00000000e+00    1.74201721e+00    0.00000000e+00    0.00000000e+00
72 multi/harmonic   -1.84990440e-01    5.54971319e-01    0.00000000e+00   -7.39961759e-01    0.00000000e+00
73 multi/harmonic   -8.59942639e-02   -8.59942639e-02    0.00000000e+00    0.00000000e+00    0.00000000e+00
74 multi/harmonic   -9.64005736e-01    0.00000000e+00    9.64005736e-01    0.00000000e+00    0.00000000e+00
75 multi/harmonic   -3.04995220e-01    9.14985660e-01    0.00000000e+00   -1.21998088e+00    0.00000000e+00
76 multi/harmonic   -8.59942639e-02   -8.59942639e-02    0.00000000e+00    0.00000000e+00    0.00000000e+00
77 multi/harmonic   -9.64005736e-01    0.00000000e+00    9.64005736e-01    0.00000000e+00    0.00000000e+00
78 multi/harmonic   -3.04995220e-01    9.14985660e-01    0.00000000e+00   -1.21998088e+00    0.00000000e+00
79 multi/harmonic    7.00000000e+00    0.00000000e+00   -7.00000000e+00    0.00000000e+00    0.00000000e+00
80 multi/harmonic    7.00000000e+00    0.00000000e+00   -7.00000000e+00    0.00000000e+00    0.00000000e+00
81 multi/harmonic    7.00000000e+00    0.00000000e+00   -7.00000000e+00    0.00000000e+00    0.00000000e+00
82 multi/harmonic    7.00000000e+00    0.00000000e+00   -7.00000000e+00    0.00000000e+00    0.00000000e+00
83 multi/harmonic    1.67700765e+00   -5.03102294e+00    0.00000000e+00    6.70803059e+00    0.00000000e+00
84 multi/harmonic    3.57002868e-01    3.57002868e-01    0.00000000e+00    0.00000000e+00    0.00000000e+00
85 multi/harmonic    2.62801147e+00    0.00000000e+00   -2.62801147e+00    0.00000000e+00    0.00000000e+00
86 multi/harmonic    7.00000000e+00    0.00000000e+00   -7.00000000e+00    0.00000000e+00    0.00000000e+00
87 multi/harmonic    7.00000000e+00    0.00000000e+00   -7.00000000e+00    0.00000000e+00    0.00000000e+00
88 multi/harmonic    7.00000000e+00    0.00000000e+00   -7.00000000e+00    0.00000000e+00    0.00000000e+00
89 multi/harmonic    7.00000000e+00    0.00000000e+00   -7.00000000e+00    0.00000000e+00    0.00000000e+00
90 multi/harmonic    3.57002868e-01    3.57002868e-01    0.00000000e+00    0.00000000e+00    0.00000000e+00
91 multi/harmonic    2.62801147e+00    0.00000000e+00   -2.62801147e+00    0.00000000e+00    0.00000000e+00
92 multi/harmonic    1.67700765e+00   -5.03102294e+00    0.00000000e+00    6.70803059e+00    0.00000000e+00
93 multi/harmonic    1.41993308e-01    1.41993308e-01    0.00000000e+00    0.00000000e+00    0.00000000e+00
94 multi/harmonic   -1.38599426e+00    0.00000000e+00    1.38599426e+00    0.00000000e+00    0.00000000e+00
95 multi/harmonic    1.57002868e-01   -4.71008604e-01    0.00000000e+00    6.28011472e-01    0.00000000e+00
96 multi/harmonic    3.20004780e-01    3.20004780e-01    0.00000000e+00    0.00000000e+00    0.00000000e+00
97 multi/harmonic   -6.30019120e-01    0.00000000e+00    6.30019120e-01    0.00000000e+00    0.00000000e+00
98 multi/harmonic    1.32002868e-01   -3.96008604e-01    0.00000000e+00    5.28011472e-01    0.00000000e+00
99 multi/harmonic    3.20004780e-01    3.20004780e-01    0.00000000e+00    0.00000000e+00    0.00000000e+00
100 multi/harmonic   -6.30019120e-01    0.00000000e+00    6.30019120e-01    0.00000000e+00    0.00000000e+00
101 multi/harmonic    1.32002868e-01   -3.96008604e-01    0.00000000e+00    5.28011472e-01    0.00000000e+00
102 multi/harmonic    1.41993308e-01    1.41993308e-01    0.00000000e+00    0.00000000e+00    0.00000000e+00
103 multi/harmonic   -1.38599426e+00    0.00000000e+00    1.38599426e+00    0.00000000e+00    0.00000000e+00
104 multi/harmonic    1.57002868e-01   -4.71008604e-01    0.00000000e+00    6.28011472e-01    0.00000000e+00
105 multi/harmonic    1.41993308e-01    1.41993308e-01    0.00000000e+00    0.00000000e+00    0.00000000e+00
106 multi/harmonic   -1.38599426e+00    0.00000000e+00    1.38599426e+00    0.00000000e+00    0.00000000e+00
107 multi/harmonic    1.57002868e-01   -4.71008604e-01    0.00000000e+00    6.28011472e-01    0.00000000e+00
108 multi/harmonic    3.20004780e-01    3.20004780e-01    0.00000000e+00    0.00000000e+00    0.00000000e+00
109 multi/harmonic   -6.30019120e-01    0.00000000e+00    6.30019120e-01    0.00000000e+00    0.00000000e+00
110 multi/harmonic    1.32002868e-01   -3.96008604e-01    0.00000000e+00    5.28011472e-01    0.00000000e+00
111 multi/harmonic    1.41993308e-01    1.41993308e-01    0.00000000e+00    0.00000000e+00    0.00000000e+00
112 multi/harmonic   -1.38599426e+00    0.00000000e+00    1.38599426e+00    0.00000000e+00    0.00000000e+00
113 multi/harmonic    1.57002868e-01   -4.71008604e-01    0.00000000e+00    6.28011472e-01    0.00000000e+00
114 multi/harmonic    3.20004780e-01    3.20004780e-01    0.00000000e+00    0.00000000e+00    0.00000000e+00
115 multi/harmonic   -6.30019120e-01    0.00000000e+00    6.30019120e-01    0.00000000e+00    0.00000000e+00
116 multi/harmonic    1.32002868e-01   -3.96008604e-01    0.00000000e+00    5.28011472e-01    0.00000000e+00
117 multi/harmonic    1.32002868e-01   -3.96008604e-01    0.00000000e+00    5.28011472e-01    0.00000000e+00
118 multi/harmonic    3.20004780e-01    3.20004780e-01    0.00000000e+00    0.00000000e+00    0.00000000e+00
119 multi/harmonic   -6.30019120e-01    0.00000000e+00    6.30019120e-01    0.00000000e+00    0.00000000e+00
120 multi/harmonic    1.41993308e-01    1.41993308e-01    0.00000000e+00    0.00000000e+00    0.00000000e+00
121 multi/harmonic   -1.38599426e+00    0.00000000e+00    1.38599426e+00    0.00000000e+00    0.00000000e+00
122 multi/harmonic    1.57002868e-01   -4.71008604e-01    0.00000000e+00    6.28011472e-01    0.00000000e+00
123 multi/harmonic    1.41993308e-01    1.41993308e-01    0.00000000e+00    0.00000000e+00    0.00000000e+00
124 multi/harmonic   -1.38599426e+00    0.00000000e+00    1.38599426e+00    0.00000000e+00    0.00000000e+00
125 multi/harmonic    1.57002868e-01   -4.71008604e-01    0.00000000e+00    6.28011472e-01    0.00000000e+00
126 multi/harmonic    3.20004780e-01    3.20004780e-01    0.00000000e+00    0.00000000e+00    0.00000000e+00
127 multi/harmonic   -6.30019120e-01    0.00000000e+00    6.30019120e-01    0.00000000e+00    0.00000000e+00
128 multi/harmonic    1.32002868e-01   -3.96008604e-01    0.00000000e+00    5.28011472e-01    0.00000000e+00
129 multi/harmonic    1.57002868e-01   -4.71008604e-01    0.00000000e+00    6.28011472e-01    0.00000000e+00
130 multi/harmonic    1.41993308e-01    1.41993308e-01    0.00000000e+00    0.00000000e+00    0.00000000e+00
131 multi/harmonic   -1.38599426e+00    0.00000000e+00    1.38599426e+00    0.00000000e+00    0.00000000e+00
132 multi/harmonic    1.41993308e-01    1.41993308e-01    0.00000000e+00    0.00000000e+00    0.00000000e+00
133 multi/harmonic   -1.38599426e+00    0.00000000e+00    1.38599426e+00    0.00000000e+00    0.00000000e+00
134 multi/harmonic    1.57002868e-01   -4.71008604e-01    0.00000000e+00    6.28011472e-01    0.00000000e+00
135 multi/harmonic    3.20004780e-01    3.20004780e-01    0.00000000e+00    0.00000000e+00    0.00000000e+00
136 multi/harmonic   -6.30019120e-01    0.00000000e+00    6.30019120e-01    0.00000000e+00    0.00000000e+00
137 multi/harmonic    1.32002868e-01   -3.96008604e-01    0.00000000e+00    5.28011472e-01    0.00000000e+00
138 multi/harmonic    3.20004780e-01    3.20004780e-01    0.00000000e+00    0.00000000e+00    0.00000000e+00
139 multi/harmonic   -6.30019120e-01    0.00000000e+00    6.30019120e-01    0.00000000e+00    0.00000000e+00
140 multi/harmonic    1.32002868e-01   -3.96008604e-01    0.00000000e+00    5.28011472e-01    0.00000000e+00
141 multi/harmonic    3.42017208e-01    0.00000000e+00   -3.42017208e-01    0.00000000e+00    0.00000000e+00
142 multi/harmonic    2.64005736e-01    2.64005736e-01    0.00000000e+00    0.00000000e+00    0.00000000e+00
143 multi/harmonic    2.64005736e-01    2.64005736e-01    0.00000000e+00    0.00000000e+00    0.00000000e+00
144 multi/harmonic    3.42017208e-01    0.00000000e+00   -3.42017208e-01    0.00000000e+00    0.00000000e+00
145 multi/harmonic    1.41993308e-01    1.41993308e-01    0.00000000e+00    0.00000000e+00    0.00000000e+00
146 multi/harmonic   -1.38599426e+00    0.00000000e+00    1.38599426e+00    0.00000000e+00    0.00000000e+00
147 multi/harmonic    1.57002868e-01   -4.71008604e-01    0.00000000e+00    6.28011472e-01    0.00000000e+00
148 multi/harmonic    1.41993308e-01    1.41993308e-01    0.00000000e+00    0.00000000e+00    0.00000000e+00
149 multi/harmonic   -1.38599426e+00    0.00000000e+00    1.38599426e+00    0.00000000e+00    0.00000000e+00
150 multi/harmonic    1.57002868e-01   -4.71008604e-01    0.00000000e+00    6.28011472e-01    0.00000000e+00
151 multi/harmonic    3.20004780e-01    3.20004780e-01    0.00000000e+00    0.00000000e+00    0.00000000e+00
152 multi/harmonic   -6.30019120e-01    0.00000000e+00    6.30019120e-01    0.00000000e+00    0.00000000e+00
153 multi/harmonic    1.32002868e-01   -3.96008604e-01    0.00000000e+00    5.28011472e-01    0.00000000e+00
154 multi/harmonic    3.20004780e-01    3.20004780e-01    0.00000000e+00    0.00000000e+00    0.00000000e+00
155 multi/harmonic   -6.30019120e-01    0.00000000e+00    6.30019120e-01    0.00000000e+00    0.00000000e+00
156 multi/harmonic    1.32002868e-01   -3.96008604e-01    0.00000000e+00    5.28011472e-01    0.00000000e+00
157 multi/harmonic    7.00000000e+00    0.00000000e+00   -7.00000000e+00    0.00000000e+00    0.00000000e+00
158 multi/harmonic    7.00000000e+00    0.00000000e+00   -7.00000000e+00    0.00000000e+00    0.00000000e+00
159 multi/harmonic    7.00000000e+00    0.00000000e+00   -7.00000000e+00    0.00000000e+00    0.00000000e+00
160 multi/harmonic    7.00000000e+00    0.00000000e+00   -7.00000000e+00    0.00000000e+00    0.00000000e+00
161 multi/harmonic    1.41993308e-01    1.41993308e-01    0.00000000e+00    0.00000000e+00    0.00000000e+00
162 multi/harmonic   -1.38599426e+00    0.00000000e+00    1.38599426e+00    0.00000000e+00    0.00000000e+00
163 multi/harmonic    1.57002868e-01   -4.71008604e-01    0.00000000e+00    6.28011472e-01    0.00000000e+00
164 multi/harmonic   -6.30019120e-01    0.00000000e+00    6.30019120e-01    0.00000000e+00    0.00000000e+00
165 multi/harmonic    1.32002868e-01   -3.96008604e-01    0.00000000e+00    5.28011472e-01    0.00000000e+00
166 multi/harmonic    3.20004780e-01    3.20004780e-01    0.00000000e+00    0.00000000e+00    0.00000000e+00
167 multi/harmonic    3.20004780e-01    3.20004780e-01    0.00000000e+00    0.00000000e+00    0.00000000e+00
168 multi/harmonic   -6.30019120e-01    0.00000000e+00    6.30019120e-01    0.00000000e+00    0.00000000e+00
169 multi/harmonic    1.32002868e-01   -3.96008604e-01    0.00000000e+00    5.28011472e-01    0.00000000e+00
170 multi/harmonic    2.64005736e-01    2.64005736e-01    0.00000000e+00    0.00000000e+00    0.00000000e+00
171 multi/harmonic    3.42017208e-01    0.00000000e+00   -3.42017208e-01    0.00000000e+00    0.00000000e+00
172 multi/harmonic    2.64005736e-01    2.64005736e-01    0.00000000e+00    0.00000000e+00    0.00000000e+00
173 multi/harmonic    3.42017208e-01    0.00000000e+00   -3.42017208e-01    0.00000000e+00    0.00000000e+00
174 multi/harmonic    1.41993308e-01    1.41993308e-01    0.00000000e+00    0.00000000e+00    0.00000000e+00
175 multi/harmonic   -1.38599426e+00    0.00000000e+00    1.38599426e+00    0.00000000e+00    0.00000000e+00
176 multi/harmonic    1.57002868e-01   -4.71008604e-01    0.00000000e+00    6.28011472e-01    0.00000000e+00
177 multi/harmonic    3.20004780e-01    3.20004780e-01    0.00000000e+00    0.00000000e+00    0.00000000e+00
178 multi/harmonic   -6.30019120e-01    0.00000000e+00    6.30019120e-01    0.00000000e+00    0.00000000e+00
179 multi/harmonic    1.32002868e-01   -3.96008604e-01    0.00000000e+00    5.28011472e-01    0.00000000e+00
180 multi/harmonic    3.20004780e-01    3.20004780e-01    0.00000000e+00    0.00000000e+00    0.00000000e+00
181 multi/harmonic   -6.30019120e-01    0.00000000e+00    6.30019120e-01    0.00000000e+00    0.00000000e+00
182 multi/harmonic    1.32002868e-01   -3.96008604e-01    0.00000000e+00    5.28011472e-01    0.00000000e+00
183 multi/harmonic    7.00000000e+00    0.00000000e+00   -7.00000000e+00    0.00000000e+00    0.00000000e+00
184 multi/harmonic    1.41993308e-01    1.41993308e-01    0.00000000e+00    0.00000000e+00    0.00000000e+00
185 multi/harmonic   -1.38599426e+00    0.00000000e+00    1.38599426e+00    0.00000000e+00    0.00000000e+00
186 multi/harmonic    1.57002868e-01   -4.71008604e-01    0.00000000e+00    6.28011472e-01    0.00000000e+00
187 multi/harmonic   -6.30019120e-01    0.00000000e+00    6.30019120e-01    0.00000000e+00    0.00000000e+00
188 multi/harmonic    1.32002868e-01   -3.96008604e-01    0.00000000e+00    5.28011472e-01    0.00000000e+00
189 multi/harmonic    3.20004780e-01    3.20004780e-01    0.00000000e+00    0.00000000e+00    0.00000000e+00
190 multi/harmonic    3.20004780e-01    3.20004780e-01    0.00000000e+00    0.00000000e+00    0.00000000e+00
191 multi/harmonic   -6.30019120e-01    0.00000000e+00    6.30019120e-01    0.00000000e+00    0.00000000e+00
192 multi/harmonic    1.32002868e-01   -3.96008604e-01    0.00000000e+00    5.28011472e-01    0.00000000e+00
193 multi/harmonic    1.41993308e-01    1.41993308e-01    0.00000000e+00    0.00000000e+00    0.00000000e+00
194 multi/harmonic   -1.38599426e+00    0.00000000e+00    1.38599426e+00    0.00000000e+00    0.00000000e+00
195 multi/harmonic    1.57002868e-01   -4.71008604e-01    0.00000000e+00    6.28011472e-01    0.00000000e+00
196 multi/harmonic    1.41993308e-01    1.41993308e-01    0.00000000e+00    0.00000000e+00    0.00000000e+00
197 multi/harmonic   -1.38599426e+00    0.00000000e+00    1.38599426e+00    0.00000000e+00    0.00000000e+00
198 multi/harmonic    1.57002868e-01   -4.71008604e-01    0.00000000e+00    6.28011472e-01    0.00000000e+00
199 multi/harmonic    3.20004780e-01    3.20004780e-01    0.00000000e+00    0.00000000e+00    0.00000000e+00
200 multi/harmonic   -6.30019120e-01    0.00000000e+00    6.30019120e-01    0.00000000e+00    0.00000000e+00
201 multi/harmonic    1.32002868e-01   -3.96008604e-01    0.00000000e+00    5.28011472e-01    0.00000000e+00
202 multi/harmonic    1.41993308e-01    1.41993308e-01    0.00000000e+00    0.00000000e+00    0.00000000e+00
203 multi/harmonic   -1.38599426e+00    0.00000000e+00    1.38599426e+00    0.00000000e+00    0.00000000e+00
204 multi/harmonic    1.57002868e-01   -4.71008604e-01    0.00000000e+00    6.28011472e-01    0.00000000e+00
205 multi/harmonic    3.20004780e-01    3.20004780e-01    0.00000000e+00    0.00000000e+00    0.00000000e+00
206 multi/harmonic   -6.30019120e-01    0.00000000e+00    6.30019120e-01    0.00000000e+00    0.00000000e+00