Untitled

41 atoms
43 bonds
68 angles
122 dihedrals
22 impropers

15 atom types
43 bond types
68 angle types
122 dihedral types
22 improper types

-20.3300000 -20.3300000 xlo xhi
201.2000000 201.2000000 ylo yhi
108.3400000 108.3400000 zlo zhi
  0.0000000   0.0000000   0.0000000 xy xz yz

Masses

1  12.0110000
2  12.0110000
3  14.0067000
4  12.0110000
5   1.0079000
6   1.0079000
7  32.0660000
8  14.0067000
9  12.0110000
10  15.9994000
11  14.0067000
12  18.9984000
13  32.0660000
14  15.9994000
15  14.0067000

Bond Coeffs

1 harmonic    5.12255975e+02    1.37700000e+00
2 harmonic    2.58287046e+02    1.71700000e+00
3 harmonic    3.93510994e+02    1.42300000e+00
4 harmonic    3.20682003e+02    1.36900000e+00
5 harmonic    4.78144001e+02    1.35100000e+00
6 harmonic    5.99190966e+02    1.31300000e+00
7 harmonic    2.58287046e+02    1.71700000e+00
8 harmonic    4.84548996e+02    1.34800000e+00
9 harmonic    4.01067997e+02    1.37400000e+00
10 harmonic    4.01067997e+02    1.37400000e+00
11 harmonic    4.01067997e+02    1.37400000e+00
12 harmonic    4.01067997e+02    1.37400000e+00
13 harmonic    4.68571941e+02    1.34200000e+00
14 harmonic    4.01067997e+02    1.37400000e+00
15 harmonic    4.01067997e+02    1.37400000e+00
16 harmonic    4.68571941e+02    1.34200000e+00
17 harmonic    4.01067997e+02    1.37400000e+00
18 harmonic    4.01067997e+02    1.37400000e+00
19 harmonic    2.36121056e+02    1.77000000e+00
20 harmonic    4.01067997e+02    1.37400000e+00
21 harmonic    4.01067997e+02    1.37400000e+00
22 harmonic    4.01067997e+02    1.37400000e+00
23 harmonic    4.01067997e+02    1.37400000e+00
24 harmonic    3.81853011e+02    1.08400000e+00
25 harmonic    3.81853011e+02    1.08400000e+00
26 harmonic    3.81853011e+02    1.08400000e+00
27 harmonic    4.79510994e+02    1.01500000e+00
28 harmonic    3.81853011e+02    1.08400000e+00
29 harmonic    3.81853011e+02    1.08400000e+00
30 harmonic    4.50869025e+02    1.02800000e+00
31 harmonic    4.50869025e+02    1.02800000e+00
32 harmonic    4.73250000e+02    1.01800000e+00
33 harmonic    4.73250000e+02    1.01800000e+00
34 harmonic    3.81853011e+02    1.08400000e+00
35 harmonic    3.81853011e+02    1.08400000e+00
36 harmonic    4.73250000e+02    1.01800000e+00
37 harmonic    9.31962954e+02    1.22200000e+00
38 harmonic    4.19491037e+02    1.36900000e+00
39 harmonic    3.94519001e+02    1.39500000e+00
40 harmonic    4.43888026e+02    1.39800000e+00
41 harmonic    7.73492949e+02    1.45000000e+00
42 harmonic    2.37560946e+02    1.71000000e+00
43 harmonic    7.73492949e+02    1.45000000e+00

Angle Coeffs

1 harmonic    7.47000478e+01    1.11621000e+02
2 harmonic    6.82229924e+01    1.23538000e+02
3 harmonic    1.41197419e+02    8.84950000e+01
4 harmonic    7.45554493e+01    1.26456000e+02
5 harmonic    7.73625717e+01    1.14623000e+02
6 harmonic    6.13874283e+01    1.08480000e+02
7 harmonic    5.51254780e+01    1.30065000e+02
8 harmonic    8.67913480e+01    1.03779000e+02
9 harmonic    4.74247132e+01    1.17057000e+02
10 harmonic    4.74247132e+01    1.17057000e+02
11 harmonic    7.19658222e+01    1.20000000e+02
12 harmonic    6.14591300e+01    1.14516000e+02
13 harmonic    6.76481836e+01    1.30926000e+02
14 harmonic    7.62834608e+01    1.16867000e+02
15 harmonic    4.82170172e+01    1.16188000e+02
16 harmonic    4.81453155e+01    1.19977000e+02
17 harmonic    4.05174474e+01    1.20571000e+02
18 harmonic    4.81453155e+01    1.19977000e+02
19 harmonic    4.05174474e+01    1.20571000e+02
20 harmonic    4.81453155e+01    1.19977000e+02
21 harmonic    4.05174474e+01    1.20571000e+02
22 harmonic    4.81453155e+01    1.19977000e+02
23 harmonic    7.87296845e+01    1.18065000e+02
24 harmonic    4.05174474e+01    1.20571000e+02
25 harmonic    4.81453155e+01    1.19977000e+02
26 harmonic    7.37655354e+01    1.17918000e+02
27 harmonic    7.87296845e+01    1.18065000e+02
28 harmonic    4.81453155e+01    1.19977000e+02
29 harmonic    7.87296845e+01    1.18065000e+02
30 harmonic    4.51935946e+01    1.18227000e+02
31 harmonic    7.36209369e+01    1.18596000e+02
32 harmonic    7.37655354e+01    1.17918000e+02
33 harmonic    4.05174474e+01    1.20571000e+02
34 harmonic    4.05174474e+01    1.20571000e+02
35 harmonic    7.87296845e+01    1.18065000e+02
36 harmonic    4.81453155e+01    1.19977000e+02
37 harmonic    4.05174474e+01    1.20571000e+02
38 harmonic    4.81453155e+01    1.19977000e+02
39 harmonic    4.05174474e+01    1.20571000e+02
40 harmonic    1.07733031e+02    1.05280000e+02
41 harmonic    1.01902486e+02    9.92000000e+01
42 harmonic    1.07733031e+02    1.05280000e+02
43 harmonic    4.81453155e+01    1.19977000e+02
44 harmonic    7.40535373e+01    1.13991000e+02
45 harmonic    4.81453155e+01    1.19977000e+02
46 harmonic    4.05174474e+01    1.20571000e+02
47 harmonic    4.05174474e+01    1.20571000e+02
48 harmonic    4.81453155e+01    1.19977000e+02
49 harmonic    7.52043499e+01    1.21633000e+02
50 harmonic    4.05174474e+01    1.20571000e+02
51 harmonic    4.81453155e+01    1.19977000e+02
52 harmonic    4.05174474e+01    1.20571000e+02
53 harmonic    4.76410134e+01    1.10288000e+02
54 harmonic    7.52043499e+01    1.21633000e+02
55 harmonic    4.05174474e+01    1.20571000e+02
56 harmonic    7.40535373e+01    1.13991000e+02
57 harmonic    4.05174474e+01    1.20571000e+02
58 harmonic    4.13802581e+01    1.20277000e+02
59 harmonic    3.43283939e+01    1.12596000e+02
60 harmonic    4.51935946e+01    1.16881000e+02
61 harmonic    4.51935946e+01    1.16881000e+02
62 harmonic    4.03011472e+01    1.09160000e+02
63 harmonic    6.72884799e+01    1.20481000e+02
64 harmonic    6.78644837e+01    1.25881000e+02
65 harmonic    6.52724665e+01    1.27152000e+02
66 harmonic    1.12913480e+02    1.08548000e+02
67 harmonic    1.12913480e+02    1.20924000e+02
68 harmonic    1.12913480e+02    1.08548000e+02

Dihedral Coeffs

1 multi/harmonic    7.00000000e+00    0.00000000e+00   -7.00000000e+00    0.00000000e+00    0.00000000e+00
2 multi/harmonic    3.60000000e+00    0.00000000e+00   -3.60000000e+00    0.00000000e+00    0.00000000e+00
3 multi/harmonic    3.60000000e+00    0.00000000e+00   -3.60000000e+00    0.00000000e+00    0.00000000e+00
4 multi/harmonic    7.00000000e+00    0.00000000e+00   -7.00000000e+00    0.00000000e+00    0.00000000e+00
5 multi/harmonic    7.00000000e+00    0.00000000e+00   -7.00000000e+00    0.00000000e+00    0.00000000e+00
6 multi/harmonic    6.00000000e+00    0.00000000e+00   -6.00000000e+00    0.00000000e+00    0.00000000e+00
7 multi/harmonic    6.00000000e+00    0.00000000e+00   -6.00000000e+00    0.00000000e+00    0.00000000e+00
8 multi/harmonic    7.00000000e+00    0.00000000e+00   -7.00000000e+00    0.00000000e+00    0.00000000e+00
9 multi/harmonic    2.50000000e+00    0.00000000e+00   -2.50000000e+00    0.00000000e+00    0.00000000e+00
10 multi/harmonic    2.50000000e+00    0.00000000e+00   -2.50000000e+00    0.00000000e+00    0.00000000e+00
11 multi/harmonic    7.00000000e+00    0.00000000e+00   -7.00000000e+00    0.00000000e+00    0.00000000e+00
12 multi/harmonic    7.00000000e+00    0.00000000e+00   -7.00000000e+00    0.00000000e+00    0.00000000e+00
13 multi/harmonic    7.00000000e+00    0.00000000e+00   -7.00000000e+00    0.00000000e+00    0.00000000e+00
14 multi/harmonic    7.00000000e+00    0.00000000e+00   -7.00000000e+00    0.00000000e+00    0.00000000e+00
15 multi/harmonic    3.60000000e+00    0.00000000e+00   -3.60000000e+00    0.00000000e+00    0.00000000e+00
16 multi/harmonic    3.60000000e+00    0.00000000e+00   -3.60000000e+00    0.00000000e+00    0.00000000e+00
17 multi/harmonic    3.60000000e+00    0.00000000e+00   -3.60000000e+00    0.00000000e+00    0.00000000e+00
18 multi/harmonic    3.60000000e+00    0.00000000e+00   -3.60000000e+00    0.00000000e+00    0.00000000e+00
19 multi/harmonic    7.00000000e+00    0.00000000e+00   -7.00000000e+00    0.00000000e+00    0.00000000e+00
20 multi/harmonic    7.00000000e+00    0.00000000e+00   -7.00000000e+00    0.00000000e+00    0.00000000e+00
21 multi/harmonic    4.00000000e+00    0.00000000e+00   -4.00000000e+00    0.00000000e+00    0.00000000e+00
22 multi/harmonic    4.00000000e+00    0.00000000e+00   -4.00000000e+00    0.00000000e+00    0.00000000e+00
23 multi/harmonic    7.00000000e+00    0.00000000e+00   -7.00000000e+00    0.00000000e+00    0.00000000e+00
24 multi/harmonic    7.00000000e+00    0.00000000e+00   -7.00000000e+00    0.00000000e+00    0.00000000e+00
25 multi/harmonic    7.00000000e+00    0.00000000e+00   -7.00000000e+00    0.00000000e+00    0.00000000e+00
26 multi/harmonic    7.00000000e+00    0.00000000e+00   -7.00000000e+00    0.00000000e+00    0.00000000e+00
27 multi/harmonic    7.00000000e+00    0.00000000e+00   -7.00000000e+00    0.00000000e+00    0.00000000e+00
28 multi/harmonic    7.00000000e+00    0.00000000e+00   -7.00000000e+00    0.00000000e+00    0.00000000e+00
29 multi/harmonic    7.00000000e+00    0.00000000e+00   -7.00000000e+00    0.00000000e+00    0.00000000e+00
30 multi/harmonic    7.00000000e+00    0.00000000e+00   -7.00000000e+00    0.00000000e+00    0.00000000e+00
31 multi/harmonic    7.00000000e+00    0.00000000e+00   -7.00000000e+00    0.00000000e+00    0.00000000e+00
32 multi/harmonic    7.00000000e+00    0.00000000e+00   -7.00000000e+00    0.00000000e+00    0.00000000e+00
33 multi/harmonic    7.00000000e+00    0.00000000e+00   -7.00000000e+00    0.00000000e+00    0.00000000e+00
34 multi/harmonic    7.00000000e+00    0.00000000e+00   -7.00000000e+00    0.00000000e+00    0.00000000e+00
35 multi/harmonic    6.00000000e+00    0.00000000e+00   -6.00000000e+00    0.00000000e+00    0.00000000e+00
36 multi/harmonic    6.00000000e+00    0.00000000e+00   -6.00000000e+00    0.00000000e+00    0.00000000e+00
37 multi/harmonic    7.00000000e+00    0.00000000e+00   -7.00000000e+00    0.00000000e+00    0.00000000e+00
38 multi/harmonic    7.00000000e+00    0.00000000e+00   -7.00000000e+00    0.00000000e+00    0.00000000e+00
39 multi/harmonic    6.00000000e+00    0.00000000e+00   -6.00000000e+00    0.00000000e+00    0.00000000e+00
40 multi/harmonic    7.00000000e+00    0.00000000e+00   -7.00000000e+00    0.00000000e+00    0.00000000e+00
41 multi/harmonic    6.00000000e+00    0.00000000e+00   -6.00000000e+00    0.00000000e+00    0.00000000e+00
42 multi/harmonic    6.00000000e+00    0.00000000e+00   -6.00000000e+00    0.00000000e+00    0.00000000e+00
43 multi/harmonic    7.00000000e+00    0.00000000e+00   -7.00000000e+00    0.00000000e+00    0.00000000e+00
44 multi/harmonic    7.00000000e+00    0.00000000e+00   -7.00000000e+00    0.00000000e+00    0.00000000e+00
45 multi/harmonic    7.00000000e+00    0.00000000e+00   -7.00000000e+00    0.00000000e+00    0.00000000e+00
46 multi/harmonic    7.00000000e+00    0.00000000e+00   -7.00000000e+00    0.00000000e+00    0.00000000e+00
47 multi/harmonic    7.00000000e+00    0.00000000e+00   -7.00000000e+00    0.00000000e+00    0.00000000e+00
48 multi/harmonic    7.00000000e+00    0.00000000e+00   -7.00000000e+00    0.00000000e+00    0.00000000e+00
49 multi/harmonic    7.00000000e+00    0.00000000e+00   -7.00000000e+00    0.00000000e+00    0.00000000e+00
50 multi/harmonic   -1.64598470e+00    0.00000000e+00    1.64598470e+00    0.00000000e+00    0.00000000e+00
51 multi/harmonic   -1.03401052e+00    3.10203155e+00    0.00000000e+00   -4.13604207e+00    0.00000000e+00
52 multi/harmonic   -1.00700287e+00   -1.00700287e+00    0.00000000e+00    0.00000000e+00    0.00000000e+00
53 multi/harmonic   -1.00700287e+00   -1.00700287e+00    0.00000000e+00    0.00000000e+00    0.00000000e+00
54 multi/harmonic   -1.64598470e+00    0.00000000e+00    1.64598470e+00    0.00000000e+00    0.00000000e+00
55 multi/harmonic   -1.03401052e+00    3.10203155e+00    0.00000000e+00   -4.13604207e+00    0.00000000e+00
56 multi/harmonic    7.00000000e+00    0.00000000e+00   -7.00000000e+00    0.00000000e+00    0.00000000e+00
57 multi/harmonic    7.00000000e+00    0.00000000e+00   -7.00000000e+00    0.00000000e+00    0.00000000e+00
58 multi/harmonic   -8.59942639e-02   -8.59942639e-02    0.00000000e+00    0.00000000e+00    0.00000000e+00
59 multi/harmonic   -9.64005736e-01    0.00000000e+00    9.64005736e-01    0.00000000e+00    0.00000000e+00
60 multi/harmonic   -3.04995220e-01    9.14985660e-01    0.00000000e+00   -1.21998088e+00    0.00000000e+00
61 multi/harmonic   -1.84990440e-01    5.54971319e-01    0.00000000e+00   -7.39961759e-01    0.00000000e+00
62 multi/harmonic   -1.74201721e+00    0.00000000e+00    1.74201721e+00    0.00000000e+00    0.00000000e+00
63 multi/harmonic    1.14005736e-01    1.14005736e-01    0.00000000e+00    0.00000000e+00    0.00000000e+00
64 multi/harmonic   -8.59942639e-02   -8.59942639e-02    0.00000000e+00    0.00000000e+00    0.00000000e+00
65 multi/harmonic   -9.64005736e-01    0.00000000e+00    9.64005736e-01    0.00000000e+00    0.00000000e+00
66 multi/harmonic   -3.04995220e-01    9.14985660e-01    0.00000000e+00   -1.21998088e+00    0.00000000e+00
67 multi/harmonic    7.00000000e+00    0.00000000e+00   -7.00000000e+00    0.00000000e+00    0.00000000e+00
68 multi/harmonic    7.00000000e+00    0.00000000e+00   -7.00000000e+00    0.00000000e+00    0.00000000e+00
69 multi/harmonic    7.00000000e+00    0.00000000e+00   -7.00000000e+00    0.00000000e+00    0.00000000e+00
70 multi/harmonic    7.00000000e+00    0.00000000e+00   -7.00000000e+00    0.00000000e+00    0.00000000e+00
71 multi/harmonic    7.00000000e+00    0.00000000e+00   -7.00000000e+00    0.00000000e+00    0.00000000e+00
72 multi/harmonic    7.00000000e+00    0.00000000e+00   -7.00000000e+00    0.00000000e+00    0.00000000e+00
73 multi/harmonic    2.62801147e+00    0.00000000e+00   -2.62801147e+00    0.00000000e+00    0.00000000e+00
74 multi/harmonic    1.67700765e+00   -5.03102294e+00    0.00000000e+00    6.70803059e+00    0.00000000e+00
75 multi/harmonic    3.57002868e-01    3.57002868e-01    0.00000000e+00    0.00000000e+00    0.00000000e+00
76 multi/harmonic    7.00000000e+00    0.00000000e+00   -7.00000000e+00    0.00000000e+00    0.00000000e+00
77 multi/harmonic    7.00000000e+00    0.00000000e+00   -7.00000000e+00    0.00000000e+00    0.00000000e+00
78 multi/harmonic    3.60000000e+00    0.00000000e+00   -3.60000000e+00    0.00000000e+00    0.00000000e+00
79 multi/harmonic    7.00000000e+00    0.00000000e+00   -7.00000000e+00    0.00000000e+00    0.00000000e+00
80 multi/harmonic    3.57002868e-01    3.57002868e-01    0.00000000e+00    0.00000000e+00    0.00000000e+00
81 multi/harmonic    2.62801147e+00    0.00000000e+00   -2.62801147e+00    0.00000000e+00    0.00000000e+00
82 multi/harmonic    1.67700765e+00   -5.03102294e+00    0.00000000e+00    6.70803059e+00    0.00000000e+00
83 multi/harmonic    7.00000000e+00    0.00000000e+00   -7.00000000e+00    0.00000000e+00    0.00000000e+00
84 multi/harmonic    7.00000000e+00    0.00000000e+00   -7.00000000e+00    0.00000000e+00    0.00000000e+00
85 multi/harmonic   -9.64005736e-01    0.00000000e+00    9.64005736e-01    0.00000000e+00    0.00000000e+00
86 multi/harmonic   -3.04995220e-01    9.14985660e-01    0.00000000e+00   -1.21998088e+00    0.00000000e+00
87 multi/harmonic   -8.59942639e-02   -8.59942639e-02    0.00000000e+00    0.00000000e+00    0.00000000e+00
88 multi/harmonic    1.14005736e-01    1.14005736e-01    0.00000000e+00    0.00000000e+00    0.00000000e+00
89 multi/harmonic   -1.74201721e+00    0.00000000e+00    1.74201721e+00    0.00000000e+00    0.00000000e+00
90 multi/harmonic   -1.84990440e-01    5.54971319e-01    0.00000000e+00   -7.39961759e-01    0.00000000e+00
91 multi/harmonic   -8.59942639e-02   -8.59942639e-02    0.00000000e+00    0.00000000e+00    0.00000000e+00
92 multi/harmonic   -9.64005736e-01    0.00000000e+00    9.64005736e-01    0.00000000e+00    0.00000000e+00
93 multi/harmonic   -3.04995220e-01    9.14985660e-01    0.00000000e+00   -1.21998088e+00    0.00000000e+00
94 multi/harmonic    7.00000000e+00    0.00000000e+00   -7.00000000e+00    0.00000000e+00    0.00000000e+00
95 multi/harmonic    7.00000000e+00    0.00000000e+00   -7.00000000e+00    0.00000000e+00    0.00000000e+00
96 multi/harmonic    7.00000000e+00    0.00000000e+00   -7.00000000e+00    0.00000000e+00    0.00000000e+00
97 multi/harmonic    7.00000000e+00    0.00000000e+00   -7.00000000e+00    0.00000000e+00    0.00000000e+00
98 multi/harmonic    7.00000000e+00    0.00000000e+00   -7.00000000e+00    0.00000000e+00    0.00000000e+00
99 multi/harmonic    7.00000000e+00    0.00000000e+00   -7.00000000e+00    0.00000000e+00    0.00000000e+00
100 multi/harmonic    7.00000000e+00    0.00000000e+00   -7.00000000e+00    0.00000000e+00    0.00000000e+00
101 multi/harmonic    7.17997132e-01    7.17997132e-01    0.00000000e+00    0.00000000e+00    0.00000000e+00
102 multi/harmonic    4.97399618e+00    0.00000000e+00   -4.97399618e+00    0.00000000e+00    0.00000000e+00
103 multi/harmonic   -2.27007648e-01    6.81022945e-01    0.00000000e+00   -9.08030593e-01    0.00000000e+00
104 multi/harmonic    7.00000000e+00    0.00000000e+00   -7.00000000e+00    0.00000000e+00    0.00000000e+00
105 multi/harmonic    7.00000000e+00    0.00000000e+00   -7.00000000e+00    0.00000000e+00    0.00000000e+00
106 multi/harmonic    2.64005736e-01    2.64005736e-01    0.00000000e+00    0.00000000e+00    0.00000000e+00
107 multi/harmonic    3.42017208e-01    0.00000000e+00   -3.42017208e-01    0.00000000e+00    0.00000000e+00
108 multi/harmonic    2.64005736e-01    2.64005736e-01    0.00000000e+00    0.00000000e+00    0.00000000e+00
109 multi/harmonic    3.42017208e-01    0.00000000e+00   -3.42017208e-01    0.00000000e+00    0.00000000e+00
110 multi/harmonic    2.64005736e-01    2.64005736e-01    0.00000000e+00    0.00000000e+00    0.00000000e+00
111 multi/harmonic    3.42017208e-01    0.00000000e+00   -3.42017208e-01    0.00000000e+00    0.00000000e+00
112 multi/harmonic    2.64005736e-01    2.64005736e-01    0.00000000e+00    0.00000000e+00    0.00000000e+00
113 multi/harmonic    3.42017208e-01    0.00000000e+00   -3.42017208e-01    0.00000000e+00    0.00000000e+00
114 multi/harmonic    3.60000000e+00    0.00000000e+00   -3.60000000e+00    0.00000000e+00    0.00000000e+00
115 multi/harmonic    7.00000000e+00    0.00000000e+00   -7.00000000e+00    0.00000000e+00    0.00000000e+00
116 multi/harmonic    7.00000000e+00    0.00000000e+00   -7.00000000e+00    0.00000000e+00    0.00000000e+00
117 multi/harmonic    7.00000000e+00    0.00000000e+00   -7.00000000e+00    0.00000000e+00    0.00000000e+00
118 multi/harmonic    2.50000000e+00    0.00000000e+00   -2.50000000e+00    0.00000000e+00    0.00000000e+00
119 multi/harmonic    2.50000000e+00    0.00000000e+00   -2.50000000e+00    0.00000000e+00    0.00000000e+00
120 multi/harmonic    7.00000000e+00    0.00000000e+00   -7.00000000e+00    0.00000000e+00    0.00000000e+00
121 multi/harmonic    7.00000000e+00    0.00000000e+00   -7.00000000e+00    0.00000000e+00    0.00000000e+00
122 multi/harmonic    7.00000000e+00    0.00000000e+00   -7.00000000e+00    0.00000000e+00    0.00000000e+00

Improper Coeffs

1 harmonic    3.59800430e+00    0.00000000e+00
2 harmonic    2.87900335e+00    0.00000000e+00
3 harmonic    3.59800430e+00    0.00000000e+00
4 harmonic    1.07900335e+00    0.00000000e+00
5 harmonic    1.07900335e+00    0.00000000e+00
6 harmonic    2.51900096e+00    0.00000000e+00
7 harmonic    2.51900096e+00    0.00000000e+00
8 harmonic    2.51900096e+00    0.00000000e+00
9 harmonic    1.07900335e+00    0.00000000e+00
10 harmonic    2.51900096e+00    0.00000000e+00
11 harmonic    1.07900335e+00    0.00000000e+00
12 harmonic    1.07900335e+00    0.00000000e+00
13 harmonic    3.31000239e+00    0.00000000e+00
14 harmonic    1.07900335e+00    0.00000000e+00
15 harmonic    1.07900335e+00    0.00000000e+00
16 harmonic   -3.60002390e-01    0.00000000e+00
17 harmonic    9.35599904e+00    0.00000000e+00
18 harmonic   -1.43900574e+00    0.00000000e+00
19 harmonic   -3.60002390e-01    0.00000000e+00
20 harmonic    0.00000000e+00    0.00000000e+00
21 harmonic    0.00000000e+00    0.00000000e+00
22 harmonic    0.00000000e+00    0.00000000e+00

Atoms

     1      1      1 -0.04500000  -12.3600000  204.9800000  115.6000000
     2      1      2 0.31020000  -11.3900000  204.4900000  116.4200000
     3      1      3 -0.56530000  -11.8900000  203.6900000  117.4500000
     4      1      1 0.46210000  -13.2100000  203.5700000  117.4100000
     5      1      4 -0.15000000  -12.4600000  207.1000000  109.3300000
     6      1      4 -0.15000000  -11.2400000  207.1300000  110.0800000
     7      1      4 0.19000000  -11.1800000  206.5400000  111.3900000
     8      1      4 0.11700000  -12.3700000  205.9100000  111.9400000
     9      1      4 0.19000000  -13.5800000  205.8800000  111.1800000
    10      1      4 -0.15000000  -13.6300000  206.4700000  109.8800000
    11      1      4 -0.00900000  -17.9600000  202.3400000  119.0700000
    12      1      4 -0.15000000  -17.1700000  203.0700000  120.0200000
    13      1      4 -0.15000000  -15.7800000  203.2300000  119.7900000
    14      1      4 0.10000000  -15.1900000  202.6600000  118.6100000
    15      1      4 -0.15000000  -16.0100000  201.9200000  117.6800000
    16      1      4 -0.15000000  -17.3900000  201.7600000  117.9100000
    17      1      5 0.15000000  -10.3600000  207.6100000  109.6600000
    18      1      5 0.15000000  -18.0100000  201.2000000  117.2100000
    19      1      5 0.15000000  -14.5600000  206.4400000  109.3000000
    20      1      6 0.37000000  -12.4400000  204.3000000  113.2400000
    21      1      5 0.15000000  -12.5000000  207.5500000  108.3400000
    22      1      5 0.15000000  -15.1700000  203.7800000  120.5000000
    23      1      6 0.42000000  -20.2600000  204.4100000  119.1800000
    24      1      6 0.42000000  -19.5700000  204.0700000  120.6400000
    25      1      6 0.40000000   -9.3800000  204.3500000  116.9800000
    26      1      6 0.40000000  -13.3000000  202.4200000  119.0200000
    27      1      5 0.15000000  -15.5600000  201.4800000  116.7900000
    28      1      5 0.15000000  -17.6300000  203.5000000  120.9100000
    29      1      6 0.40000000   -9.6900000  205.3500000  115.5700000
    30      1      7 -0.08000000  -13.9600000  204.4300000  116.0900000
    31      1      8 -0.88300000  -10.0300000  204.7600000  116.3100000
    32      1      9 0.71500000  -12.2700000  205.8900000  114.4400000
    33      1     10 -0.57000000  -12.1500000  207.1000000  114.6300000
    34      1     11 -0.54700000  -12.3600000  205.3100000  113.2300000
    35      1     12 -0.19000000  -14.7000000  205.2900000  111.7000000
    36      1     12 -0.19000000  -10.0100000  206.5900000  112.0800000
    37      1      8 -0.58400000  -13.9000000  202.8800000  118.3600000
    38      1     13 1.44700000  -19.6900000  202.2200000  119.3300000
    39      1     14 -0.65000000  -19.8200000  201.2300000  120.3900000
    40      1     15 -0.97800000  -20.2200000  203.7400000  119.9400000
    41      1     14 -0.65000000  -20.3300000  201.9800000  118.0200000

Velocities

     1   0.0000000   0.0000000   0.0000000
     2   0.0000000   0.0000000   0.0000000
     3   0.0000000   0.0000000   0.0000000
     4   0.0000000   0.0000000   0.0000000
     5   0.0000000   0.0000000   0.0000000
     6   0.0000000   0.0000000   0.0000000
     7   0.0000000   0.0000000   0.0000000
     8   0.0000000   0.0000000   0.0000000
     9   0.0000000   0.0000000   0.0000000
    10   0.0000000   0.0000000   0.0000000
    11   0.0000000   0.0000000   0.0000000
    12   0.0000000   0.0000000   0.0000000
    13   0.0000000   0.0000000   0.0000000
    14   0.0000000   0.0000000   0.0000000
    15   0.0000000   0.0000000   0.0000000
    16   0.0000000   0.0000000   0.0000000
    17   0.0000000   0.0000000   0.0000000
    18   0.0000000   0.0000000   0.0000000
    19   0.0000000   0.0000000   0.0000000
    20   0.0000000   0.0000000   0.0000000
    21   0.0000000   0.0000000   0.0000000
    22   0.0000000   0.0000000   0.0000000
    23   0.0000000   0.0000000   0.0000000
    24   0.0000000   0.0000000   0.0000000
    25   0.0000000   0.0000000   0.0000000
    26   0.0000000   0.0000000   0.0000000
    27   0.0000000   0.0000000   0.0000000
    28   0.0000000   0.0000000   0.0000000
    29   0.0000000   0.0000000   0.0000000
    30   0.0000000   0.0000000   0.0000000
    31   0.0000000   0.0000000   0.0000000
    32   0.0000000   0.0000000   0.0000000
    33   0.0000000   0.0000000   0.0000000
    34   0.0000000   0.0000000   0.0000000
    35   0.0000000   0.0000000   0.0000000
    36   0.0000000   0.0000000   0.0000000
    37   0.0000000   0.0000000   0.0000000
    38   0.0000000   0.0000000   0.0000000
    39   0.0000000   0.0000000   0.0000000
    40   0.0000000   0.0000000   0.0000000
    41   0.0000000   0.0000000   0.0000000

Bonds

     1      1 1 2
     2      2 1 30
     3      3 1 32
     4      4 2 3
     5      5 2 31
     6      6 3 4
     7      7 4 30
     8      8 4 37
     9      9 5 6
    10     10 5 10
    11     11 6 7
    12     12 7 8
    13     13 7 36
    14     14 8 9
    15     15 9 10
    16     16 9 35
    17     17 11 12
    18     18 11 16
    19     19 11 38
    20     20 12 13
    21     21 13 14
    22     22 14 15
    23     23 15 16
    24     24 17 6
    25     25 18 16
    26     26 19 10
    27     27 20 34
    28     28 21 5
    29     29 22 13
    30     30 23 40
    31     31 24 40
    32     32 25 31
    33     33 26 37
    34     34 27 15
    35     35 28 12
    36     36 29 31
    37     37 32 33
    38     38 32 34
    39     39 34 8
    40     40 37 14
    41     41 38 39
    42     42 38 40
    43     43 38 41

Angles

     1      1 1 2 3
     2      2 1 2 31
     3      3 1 30 4
     4      4 1 32 33
     5      5 1 32 34
     6      6 2 1 30
     7      7 2 1 32
     8      8 2 3 4
     9      9 2 31 25
    10     10 2 31 29
    11     11 3 2 31
    12     12 3 4 30
    13     13 3 4 37
    14     14 4 37 14
    15     15 4 37 26
    16     16 5 6 7
    17     17 5 6 17
    18     18 5 10 9
    19     19 5 10 19
    20     20 6 5 10
    21     21 6 5 21
    22     22 6 7 8
    23     23 6 7 36
    24     24 7 6 17
    25     25 7 8 9
    26     26 7 8 34
    27     27 8 7 36
    28     28 8 9 10
    29     29 8 9 35
    30     30 8 34 20
    31     31 8 34 32
    32     32 9 8 34
    33     33 9 10 19
    34     34 10 5 21
    35     35 10 9 35
    36     36 11 12 13
    37     37 11 12 28
    38     38 11 16 15
    39     39 11 16 18
    40     40 11 38 39
    41     41 11 38 40
    42     42 11 38 41
    43     43 12 11 16
    44     44 12 11 38
    45     45 12 13 14
    46     46 12 13 22
    47     47 13 12 28
    48     48 13 14 15
    49     49 13 14 37
    50     50 14 13 22
    51     51 14 15 16
    52     52 14 15 27
    53     53 14 37 26
    54     54 15 14 37
    55     55 15 16 18
    56     56 16 11 38
    57     57 16 15 27
    58     58 20 34 32
    59     59 23 40 24
    60     60 23 40 38
    61     61 24 40 38
    62     62 25 31 29
    63     63 30 1 32
    64     64 30 4 37
    65     65 33 32 34
    66     66 39 38 40
    67     67 39 38 41
    68     68 40 38 41

Dihedrals

     1      1 1 2 3 4
     2      2 1 2 31 25
     3      3 1 2 31 29
     4      4 1 30 4 3
     5      5 1 30 4 37
     6      6 1 32 34 8
     7      7 1 32 34 20
     8      8 2 1 30 4
     9      9 2 1 32 33
    10     10 2 1 32 34
    11     11 2 3 4 30
    12     12 2 3 4 37
    13     13 3 2 1 30
    14     14 3 2 1 32
    15     15 3 2 31 25
    16     16 3 2 31 29
    17     17 3 4 37 14
    18     18 3 4 37 26
    19     19 4 3 2 31
    20     20 4 30 1 32
    21     21 4 37 14 13
    22     22 4 37 14 15
    23     23 5 6 7 8
    24     24 5 6 7 36
    25     25 5 10 9 8
    26     26 5 10 9 35
    27     27 6 5 10 9
    28     28 6 5 10 19
    29     29 6 7 8 9
    30     30 6 7 8 34
    31     31 7 6 5 10
    32     32 7 6 5 21
    33     33 7 8 9 10
    34     34 7 8 9 35
    35     35 7 8 34 20
    36     36 7 8 34 32
    37     37 8 7 6 17
    38     38 8 9 10 19
    39     39 8 34 32 33
    40     40 9 8 7 36
    41     41 9 8 34 20
    42     42 9 8 34 32
    43     43 9 10 5 21
    44     44 10 5 6 17
    45     45 10 9 8 34
    46     46 11 12 13 14
    47     47 11 12 13 22
    48     48 11 16 15 14
    49     49 11 16 15 27
    50     50 11 38 40 23
    51     51 11 38 40 23
    52     52 11 38 40 23
    53     53 11 38 40 24
    54     54 11 38 40 24
    55     55 11 38 40 24
    56     56 12 11 16 15
    57     57 12 11 16 18
    58     58 12 11 38 39
    59     59 12 11 38 39
    60     60 12 11 38 39
    61     61 12 11 38 40
    62     62 12 11 38 40
    63     63 12 11 38 40
    64     64 12 11 38 41
    65     65 12 11 38 41
    66     66 12 11 38 41
    67     67 12 13 14 15
    68     68 12 13 14 37
    69     69 13 12 11 16
    70     70 13 12 11 38
    71     71 13 14 15 16
    72     72 13 14 15 27
    73     73 13 14 37 26
    74     74 13 14 37 26
    75     75 13 14 37 26
    76     76 14 13 12 28
    77     77 14 15 16 18
    78     78 14 37 4 30
    79     79 15 14 13 22
    80     80 15 14 37 26
    81     81 15 14 37 26
    82     82 15 14 37 26
    83     83 15 16 11 38
    84     84 16 11 12 28
    85     85 16 11 38 39
    86     86 16 11 38 39
    87     87 16 11 38 39
    88     88 16 11 38 40
    89     89 16 11 38 40
    90     90 16 11 38 40
    91     91 16 11 38 41
    92     92 16 11 38 41
    93     93 16 11 38 41
    94     94 16 15 14 37
    95     95 17 6 5 21
    96     96 17 6 7 36
    97     97 18 16 11 38
    98     98 18 16 15 27
    99     99 19 10 5 21
   100    100 19 10 9 35
   101    101 20 34 32 33
   102    102 20 34 32 33
   103    103 20 34 32 33
   104    104 22 13 12 28
   105    105 22 13 14 37
   106    106 23 40 38 39
   107    107 23 40 38 39
   108    108 23 40 38 41
   109    109 23 40 38 41
   110    110 24 40 38 39
   111    111 24 40 38 39
   112    112 24 40 38 41