Untitled

48 atoms
52 bonds
92 angles
191 dihedrals
29 impropers

16 atom types
52 bond types
92 angle types
191 dihedral types
29 improper types

  2.8600000   2.8600000 xlo xhi
 -0.8500000  -0.8500000 ylo yhi
 16.4100000  16.4100000 zlo zhi
  0.0000000   0.0000000   0.0000000 xy xz yz

Masses

1  12.0110000
2  12.0110000
3  12.0110000
4  14.0067000
5   1.0079000
6  14.0067000
7  12.0110000
8  14.0067000
9  12.0110000
10  15.9994000
11  32.0660000
12  15.9994000
13  32.0660000
14  14.0067000
15  12.0110000
16  35.4527000

Bond Coeffs

1 harmonic    5.12255975e+02    1.37700000e+00
2 harmonic    2.58287046e+02    1.71700000e+00
3 harmonic    3.10390057e+02    1.41800000e+00
4 harmonic    5.12255975e+02    1.37700000e+00
5 harmonic    3.02258007e+02    1.50000000e+00
6 harmonic    4.38633963e+02    1.37200000e+00
7 harmonic    2.58287046e+02    1.71700000e+00
8 harmonic    4.01067997e+02    1.37400000e+00
9 harmonic    4.01067997e+02    1.37400000e+00
10 harmonic    3.88329947e+02    1.35200000e+00
11 harmonic    4.38850024e+02    1.26100000e+00
12 harmonic    3.81853011e+02    1.08400000e+00
13 harmonic    3.42991037e+02    1.09300000e+00
14 harmonic    3.72065966e+02    1.08300000e+00
15 harmonic    3.42991037e+02    1.09300000e+00
16 harmonic    3.72065966e+02    1.08300000e+00
17 harmonic    3.96246056e+02    1.08000000e+00
18 harmonic    3.81853011e+02    1.08400000e+00
19 harmonic    3.42991037e+02    1.09300000e+00
20 harmonic    3.42991037e+02    1.09300000e+00
21 harmonic    3.81853011e+02    1.08400000e+00
22 harmonic    3.42991037e+02    1.09300000e+00
23 harmonic    3.42991037e+02    1.09300000e+00
24 harmonic    3.72065966e+02    1.08300000e+00
25 harmonic    3.42991037e+02    1.09300000e+00
26 harmonic    3.42991037e+02    1.09300000e+00
27 harmonic    3.42991037e+02    1.09300000e+00
28 harmonic    3.42991037e+02    1.09300000e+00
29 harmonic    2.85777964e+02    1.47200000e+00
30 harmonic    2.85777964e+02    1.47200000e+00
31 harmonic    2.37560946e+02    1.71000000e+00
32 harmonic    3.06432003e+02    1.50800000e+00
33 harmonic    3.35651052e+02    1.43600000e+00
34 harmonic    4.19491037e+02    1.36900000e+00
35 harmonic    3.35651052e+02    1.43600000e+00
36 harmonic    3.93510994e+02    1.42300000e+00
37 harmonic    9.31962954e+02    1.22200000e+00
38 harmonic    3.06432003e+02    1.50800000e+00
39 harmonic    7.73492949e+02    1.45000000e+00
40 harmonic    7.73492949e+02    1.45000000e+00
41 harmonic    2.44252988e+02    1.76000000e+00
42 harmonic    4.59505019e+02    1.36000000e+00
43 harmonic    7.25203991e+02    1.29000000e+00
44 harmonic    6.84038958e+02    1.33300000e+00
45 harmonic    6.84038958e+02    1.33300000e+00
46 harmonic    6.84038958e+02    1.33300000e+00
47 harmonic    6.84038958e+02    1.33300000e+00
48 harmonic    2.43965942e+02    1.72000000e+00
49 harmonic    3.26654995e+02    1.48200000e+00
50 harmonic    3.26654995e+02    1.48200000e+00
51 harmonic    6.84038958e+02    1.33300000e+00
52 harmonic    3.28526052e+02    1.46800000e+00

Angle Coeffs

1 harmonic    6.23219407e+01    1.08239000e+02
2 harmonic    3.60552103e+01    1.26170000e+02
3 harmonic    7.73625717e+01    1.14623000e+02
4 harmonic    7.45554493e+01    1.26456000e+02
5 harmonic    1.41197419e+02    8.84950000e+01
6 harmonic    5.51254780e+01    1.30065000e+02
7 harmonic    6.13874283e+01    1.08480000e+02
8 harmonic    6.23219407e+01    1.08239000e+02
9 harmonic    7.19658222e+01    1.20000000e+02
10 harmonic    3.92925430e+01    1.27405000e+02
11 harmonic    4.88647228e+01    1.22881000e+02
12 harmonic    6.13874283e+01    1.08480000e+02
13 harmonic    5.71414914e+01    1.11638000e+02
14 harmonic    5.71414914e+01    1.11638000e+02
15 harmonic    7.19658222e+01    1.20000000e+02
16 harmonic    3.44000956e+01    1.11243000e+02
17 harmonic    5.05198375e+01    1.21238000e+02
18 harmonic    5.49820746e+01    1.33930000e+02
19 harmonic    4.81453155e+01    1.19977000e+02
20 harmonic    4.05174474e+01    1.20571000e+02
21 harmonic    4.05174474e+01    1.20571000e+02
22 harmonic    6.27545411e+01    1.16778000e+02
23 harmonic    4.05174474e+01    1.20571000e+02
24 harmonic    4.05174474e+01    1.20571000e+02
25 harmonic    8.08173996e+01    1.21777000e+02
26 harmonic    5.71414914e+01    1.11638000e+02
27 harmonic    3.71343212e+01    1.08836000e+02
28 harmonic    4.98004302e+01    1.09083000e+02
29 harmonic    4.57695985e+01    1.10549000e+02
30 harmonic    3.85014340e+01    1.21004000e+02
31 harmonic    3.50466061e+01    1.17291000e+02
32 harmonic    4.98004302e+01    1.09083000e+02
33 harmonic    4.57695985e+01    1.10549000e+02
34 harmonic    3.85014340e+01    1.21004000e+02
35 harmonic    3.85014340e+01    1.21004000e+02
36 harmonic    3.71343212e+01    1.08836000e+02
37 harmonic    4.54815966e+01    1.10292000e+02
38 harmonic    4.54815966e+01    1.10292000e+02
39 harmonic    3.71343212e+01    1.08836000e+02
40 harmonic    4.57695985e+01    1.10549000e+02
41 harmonic    5.32552581e+01    1.07646000e+02
42 harmonic    3.71343212e+01    1.08836000e+02
43 harmonic    4.98004302e+01    1.09083000e+02
44 harmonic    4.57695985e+01    1.10549000e+02
45 harmonic    4.98004302e+01    1.09083000e+02
46 harmonic    4.57695985e+01    1.10549000e+02
47 harmonic    3.85014340e+01    1.21004000e+02
48 harmonic    3.85014340e+01    1.21004000e+02
49 harmonic    4.54815966e+01    1.10292000e+02
50 harmonic    4.54815966e+01    1.10292000e+02
51 harmonic    3.71343212e+01    1.08836000e+02
52 harmonic    5.32552581e+01    1.07646000e+02
53 harmonic    4.57695985e+01    1.10549000e+02
54 harmonic    5.32552581e+01    1.07646000e+02
55 harmonic    4.57695985e+01    1.10549000e+02
56 harmonic    4.57695985e+01    1.10549000e+02
57 harmonic    5.32552581e+01    1.07646000e+02
58 harmonic    8.16814054e+01    1.08019000e+02
59 harmonic    8.16814054e+01    1.08019000e+02
60 harmonic    1.12913480e+02    1.08548000e+02
61 harmonic    1.12913480e+02    1.08548000e+02
62 harmonic    9.71534417e+01    1.01747000e+02
63 harmonic    7.98099904e+01    1.10353000e+02
64 harmonic    8.03142925e+01    1.15011000e+02
65 harmonic    7.55640535e+01    1.09960000e+02
66 harmonic    5.90834130e+01    1.19600000e+02
67 harmonic    8.03859943e+01    1.17909000e+02
68 harmonic    6.52724665e+01    1.27152000e+02
69 harmonic    7.55640535e+01    1.09960000e+02
70 harmonic    6.72884799e+01    1.20481000e+02
71 harmonic    5.90834130e+01    1.19600000e+02
72 harmonic    8.03142925e+01    1.15011000e+02
73 harmonic    8.06739962e+01    1.14698000e+02
74 harmonic    7.19658222e+01    1.20000000e+02
75 harmonic    1.12913480e+02    1.20924000e+02
76 harmonic    1.12050669e+02    1.03453000e+02
77 harmonic    1.12050669e+02    1.03453000e+02
78 harmonic    6.90869981e+01    1.23536000e+02
79 harmonic    6.90869981e+01    1.23536000e+02
80 harmonic    5.98028203e+01    1.22253000e+02
81 harmonic    8.93809751e+01    1.09856000e+02
82 harmonic    5.37583652e+01    1.21550000e+02
83 harmonic    4.83604207e+01    1.22141000e+02
84 harmonic    5.37583652e+01    1.21550000e+02
85 harmonic    5.37583652e+01    1.21550000e+02
86 harmonic    5.37583652e+01    1.21550000e+02
87 harmonic    6.70004780e+01    1.20132000e+02
88 harmonic    4.83604207e+01    1.22141000e+02
89 harmonic    8.00979924e+01    1.11453000e+02
90 harmonic    7.07421128e+01    1.15343000e+02
91 harmonic    4.83604207e+01    1.22141000e+02
92 harmonic    3.92208413e+01    1.11297000e+02

Dihedral Coeffs

1 multi/harmonic    7.00000000e+00    0.00000000e+00   -7.00000000e+00    0.00000000e+00    0.00000000e+00
2 multi/harmonic    7.00000000e+00    0.00000000e+00   -7.00000000e+00    0.00000000e+00    0.00000000e+00
3 multi/harmonic    6.00000000e+00    0.00000000e+00   -6.00000000e+00    0.00000000e+00    0.00000000e+00
4 multi/harmonic    6.00000000e+00    0.00000000e+00   -6.00000000e+00    0.00000000e+00    0.00000000e+00
5 multi/harmonic    7.00000000e+00    0.00000000e+00   -7.00000000e+00    0.00000000e+00    0.00000000e+00
6 multi/harmonic    7.00000000e+00    0.00000000e+00   -7.00000000e+00    0.00000000e+00    0.00000000e+00
7 multi/harmonic    2.50000000e+00    0.00000000e+00   -2.50000000e+00    0.00000000e+00    0.00000000e+00
8 multi/harmonic    2.50000000e+00    0.00000000e+00   -2.50000000e+00    0.00000000e+00    0.00000000e+00
9 multi/harmonic    7.00000000e+00    0.00000000e+00   -7.00000000e+00    0.00000000e+00    0.00000000e+00
10 multi/harmonic    7.00000000e+00    0.00000000e+00   -7.00000000e+00    0.00000000e+00    0.00000000e+00
11 multi/harmonic    7.00000000e+00    0.00000000e+00   -7.00000000e+00    0.00000000e+00    0.00000000e+00
12 multi/harmonic    7.00000000e+00    0.00000000e+00   -7.00000000e+00    0.00000000e+00    0.00000000e+00
13 multi/harmonic    7.00000000e+00    0.00000000e+00   -7.00000000e+00    0.00000000e+00    0.00000000e+00
14 multi/harmonic    7.00000000e+00    0.00000000e+00   -7.00000000e+00    0.00000000e+00    0.00000000e+00
15 multi/harmonic    7.00000000e+00    0.00000000e+00   -7.00000000e+00    0.00000000e+00    0.00000000e+00
16 multi/harmonic    7.00000000e+00    0.00000000e+00   -7.00000000e+00    0.00000000e+00    0.00000000e+00
17 multi/harmonic    7.00000000e+00    0.00000000e+00   -7.00000000e+00    0.00000000e+00    0.00000000e+00
18 multi/harmonic    7.00000000e+00    0.00000000e+00   -7.00000000e+00    0.00000000e+00    0.00000000e+00
19 multi/harmonic    7.00000000e+00    0.00000000e+00   -7.00000000e+00    0.00000000e+00    0.00000000e+00
20 multi/harmonic    7.00000000e+00    0.00000000e+00   -7.00000000e+00    0.00000000e+00    0.00000000e+00
21 multi/harmonic    7.00000000e+00    0.00000000e+00   -7.00000000e+00    0.00000000e+00    0.00000000e+00
22 multi/harmonic    7.00000000e+00    0.00000000e+00   -7.00000000e+00    0.00000000e+00    0.00000000e+00
23 multi/harmonic    7.00000000e+00    0.00000000e+00   -7.00000000e+00    0.00000000e+00    0.00000000e+00
24 multi/harmonic    7.00000000e+00    0.00000000e+00   -7.00000000e+00    0.00000000e+00    0.00000000e+00
25 multi/harmonic    7.00000000e+00    0.00000000e+00   -7.00000000e+00    0.00000000e+00    0.00000000e+00
26 multi/harmonic    7.00000000e+00    0.00000000e+00   -7.00000000e+00    0.00000000e+00    0.00000000e+00
27 multi/harmonic    7.00000000e+00    0.00000000e+00   -7.00000000e+00    0.00000000e+00    0.00000000e+00
28 multi/harmonic    7.00000000e+00    0.00000000e+00   -7.00000000e+00    0.00000000e+00    0.00000000e+00
29 multi/harmonic    7.00000000e+00    0.00000000e+00   -7.00000000e+00    0.00000000e+00    0.00000000e+00
30 multi/harmonic    7.00000000e+00    0.00000000e+00   -7.00000000e+00    0.00000000e+00    0.00000000e+00
31 multi/harmonic    7.00000000e+00    0.00000000e+00   -7.00000000e+00    0.00000000e+00    0.00000000e+00
32 multi/harmonic    7.00000000e+00    0.00000000e+00   -7.00000000e+00    0.00000000e+00    0.00000000e+00
33 multi/harmonic    7.50000000e-02   -2.25000000e-01    0.00000000e+00    3.00000000e-01    0.00000000e+00
34 multi/harmonic    1.78011472e-01    1.78011472e-01    0.00000000e+00    0.00000000e+00    0.00000000e+00
35 multi/harmonic   -9.18021033e-01    0.00000000e+00    9.18021033e-01    0.00000000e+00    0.00000000e+00
36 multi/harmonic    1.41993308e-01    1.41993308e-01    0.00000000e+00    0.00000000e+00    0.00000000e+00
37 multi/harmonic   -1.38599426e+00    0.00000000e+00    1.38599426e+00    0.00000000e+00    0.00000000e+00
38 multi/harmonic    1.57002868e-01   -4.71008604e-01    0.00000000e+00    6.28011472e-01    0.00000000e+00
39 multi/harmonic    1.41993308e-01    1.41993308e-01    0.00000000e+00    0.00000000e+00    0.00000000e+00
40 multi/harmonic   -1.38599426e+00    0.00000000e+00    1.38599426e+00    0.00000000e+00    0.00000000e+00
41 multi/harmonic    1.57002868e-01   -4.71008604e-01    0.00000000e+00    6.28011472e-01    0.00000000e+00
42 multi/harmonic    2.13001912e-01   -6.39005736e-01    0.00000000e+00    8.52007648e-01    0.00000000e+00
43 multi/harmonic    1.20000000e+01    0.00000000e+00   -1.20000000e+01    0.00000000e+00    0.00000000e+00
44 multi/harmonic    1.20000000e+01    0.00000000e+00   -1.20000000e+01    0.00000000e+00    0.00000000e+00
45 multi/harmonic    2.50000000e+00    0.00000000e+00   -2.50000000e+00    0.00000000e+00    0.00000000e+00
46 multi/harmonic   -2.34990440e-01    7.04971319e-01    0.00000000e+00   -9.39961759e-01    0.00000000e+00
47 multi/harmonic    1.51998088e+00    0.00000000e+00   -1.51998088e+00    0.00000000e+00    0.00000000e+00
48 multi/harmonic   -1.45004780e-01   -1.45004780e-01    0.00000000e+00    0.00000000e+00    0.00000000e+00
49 multi/harmonic    7.50000000e-02   -2.25000000e-01    0.00000000e+00    3.00000000e-01    0.00000000e+00
50 multi/harmonic    1.78011472e-01    1.78011472e-01    0.00000000e+00    0.00000000e+00    0.00000000e+00
51 multi/harmonic   -9.18021033e-01    0.00000000e+00    9.18021033e-01    0.00000000e+00    0.00000000e+00
52 multi/harmonic    1.41993308e-01    1.41993308e-01    0.00000000e+00    0.00000000e+00    0.00000000e+00
53 multi/harmonic   -1.38599426e+00    0.00000000e+00    1.38599426e+00    0.00000000e+00    0.00000000e+00
54 multi/harmonic    1.57002868e-01   -4.71008604e-01    0.00000000e+00    6.28011472e-01    0.00000000e+00
55 multi/harmonic    1.41993308e-01    1.41993308e-01    0.00000000e+00    0.00000000e+00    0.00000000e+00
56 multi/harmonic   -1.38599426e+00    0.00000000e+00    1.38599426e+00    0.00000000e+00    0.00000000e+00
57 multi/harmonic    1.57002868e-01   -4.71008604e-01    0.00000000e+00    6.28011472e-01    0.00000000e+00
58 multi/harmonic    2.13001912e-01   -6.39005736e-01    0.00000000e+00    8.52007648e-01    0.00000000e+00
59 multi/harmonic    1.20000000e+01    0.00000000e+00   -1.20000000e+01    0.00000000e+00    0.00000000e+00
60 multi/harmonic    1.20000000e+01    0.00000000e+00   -1.20000000e+01    0.00000000e+00    0.00000000e+00
61 multi/harmonic   -2.03011472e-01   -2.03011472e-01    0.00000000e+00    0.00000000e+00    0.00000000e+00
62 multi/harmonic    1.76601338e+00    0.00000000e+00   -1.76601338e+00    0.00000000e+00    0.00000000e+00
63 multi/harmonic    1.20000000e+01    0.00000000e+00   -1.20000000e+01    0.00000000e+00    0.00000000e+00
64 multi/harmonic    7.00000000e+00    0.00000000e+00   -7.00000000e+00    0.00000000e+00    0.00000000e+00
65 multi/harmonic    7.00000000e+00    0.00000000e+00   -7.00000000e+00    0.00000000e+00    0.00000000e+00
66 multi/harmonic    7.00000000e+00    0.00000000e+00   -7.00000000e+00    0.00000000e+00    0.00000000e+00
67 multi/harmonic    2.51003824e-01    2.51003824e-01    0.00000000e+00    0.00000000e+00    0.00000000e+00
68 multi/harmonic   -4.09990440e-01    0.00000000e+00    4.09990440e-01    0.00000000e+00    0.00000000e+00
69 multi/harmonic   -2.67997132e-01    8.03991396e-01    0.00000000e+00   -1.07198853e+00    0.00000000e+00
70 multi/harmonic   -4.09990440e-01    0.00000000e+00    4.09990440e-01    0.00000000e+00    0.00000000e+00
71 multi/harmonic   -2.67997132e-01    8.03991396e-01    0.00000000e+00   -1.07198853e+00    0.00000000e+00
72 multi/harmonic    2.51003824e-01    2.51003824e-01    0.00000000e+00    0.00000000e+00    0.00000000e+00
73 multi/harmonic    2.51003824e-01    2.51003824e-01    0.00000000e+00    0.00000000e+00    0.00000000e+00
74 multi/harmonic   -4.09990440e-01    0.00000000e+00    4.09990440e-01    0.00000000e+00    0.00000000e+00
75 multi/harmonic   -2.67997132e-01    8.03991396e-01    0.00000000e+00   -1.07198853e+00    0.00000000e+00
76 multi/harmonic    1.41993308e-01    1.41993308e-01    0.00000000e+00    0.00000000e+00    0.00000000e+00
77 multi/harmonic   -1.38599426e+00    0.00000000e+00    1.38599426e+00    0.00000000e+00    0.00000000e+00
78 multi/harmonic    1.57002868e-01   -4.71008604e-01    0.00000000e+00    6.28011472e-01    0.00000000e+00
79 multi/harmonic    1.41993308e-01    1.41993308e-01    0.00000000e+00    0.00000000e+00    0.00000000e+00
80 multi/harmonic   -1.38599426e+00    0.00000000e+00    1.38599426e+00    0.00000000e+00    0.00000000e+00
81 multi/harmonic    1.57002868e-01   -4.71008604e-01    0.00000000e+00    6.28011472e-01    0.00000000e+00
82 multi/harmonic    1.50000000e-01   -4.50000000e-01    0.00000000e+00    6.00000000e-01    0.00000000e+00
83 multi/harmonic   -1.05000000e+00   -1.05000000e+00    0.00000000e+00    0.00000000e+00    0.00000000e+00
84 multi/harmonic    1.36199809e+00    0.00000000e+00   -1.36199809e+00    0.00000000e+00    0.00000000e+00
85 multi/harmonic    1.09942639e-02   -3.29827916e-02    0.00000000e+00    4.39770554e-02    0.00000000e+00
86 multi/harmonic    3.90009560e-01   -1.17002868e+00    0.00000000e+00    1.56003824e+00    0.00000000e+00
87 multi/harmonic    7.00000000e+00    0.00000000e+00   -7.00000000e+00    0.00000000e+00    0.00000000e+00
88 multi/harmonic    7.50000000e-02   -2.25000000e-01    0.00000000e+00    3.00000000e-01    0.00000000e+00
89 multi/harmonic    1.78011472e-01    1.78011472e-01    0.00000000e+00    0.00000000e+00    0.00000000e+00
90 multi/harmonic   -9.18021033e-01    0.00000000e+00    9.18021033e-01    0.00000000e+00    0.00000000e+00
91 multi/harmonic    1.57002868e-01   -4.71008604e-01    0.00000000e+00    6.28011472e-01    0.00000000e+00
92 multi/harmonic    1.41993308e-01    1.41993308e-01    0.00000000e+00    0.00000000e+00    0.00000000e+00
93 multi/harmonic   -1.38599426e+00    0.00000000e+00    1.38599426e+00    0.00000000e+00    0.00000000e+00
94 multi/harmonic    2.13001912e-01   -6.39005736e-01    0.00000000e+00    8.52007648e-01    0.00000000e+00
95 multi/harmonic    7.50000000e-02   -2.25000000e-01    0.00000000e+00    3.00000000e-01    0.00000000e+00
96 multi/harmonic    1.78011472e-01    1.78011472e-01    0.00000000e+00    0.00000000e+00    0.00000000e+00
97 multi/harmonic   -9.18021033e-01    0.00000000e+00    9.18021033e-01    0.00000000e+00    0.00000000e+00
98 multi/harmonic    1.41993308e-01    1.41993308e-01    0.00000000e+00    0.00000000e+00    0.00000000e+00
99 multi/harmonic   -1.38599426e+00    0.00000000e+00    1.38599426e+00    0.00000000e+00    0.00000000e+00
100 multi/harmonic    1.57002868e-01   -4.71008604e-01    0.00000000e+00    6.28011472e-01    0.00000000e+00
101 multi/harmonic    2.13001912e-01   -6.39005736e-01    0.00000000e+00    8.52007648e-01    0.00000000e+00
102 multi/harmonic    1.20000000e+01    0.00000000e+00   -1.20000000e+01    0.00000000e+00    0.00000000e+00
103 multi/harmonic    1.20000000e+01    0.00000000e+00   -1.20000000e+01    0.00000000e+00    0.00000000e+00
104 multi/harmonic    1.20000000e+01    0.00000000e+00   -1.20000000e+01    0.00000000e+00    0.00000000e+00
105 multi/harmonic    2.51003824e-01    2.51003824e-01    0.00000000e+00    0.00000000e+00    0.00000000e+00
106 multi/harmonic   -4.09990440e-01    0.00000000e+00    4.09990440e-01    0.00000000e+00    0.00000000e+00
107 multi/harmonic   -2.67997132e-01    8.03991396e-01    0.00000000e+00   -1.07198853e+00    0.00000000e+00
108 multi/harmonic    2.51003824e-01    2.51003824e-01    0.00000000e+00    0.00000000e+00    0.00000000e+00
109 multi/harmonic   -4.09990440e-01    0.00000000e+00    4.09990440e-01    0.00000000e+00    0.00000000e+00
110 multi/harmonic   -2.67997132e-01    8.03991396e-01    0.00000000e+00   -1.07198853e+00    0.00000000e+00
111 multi/harmonic    2.51003824e-01    2.51003824e-01    0.00000000e+00    0.00000000e+00    0.00000000e+00
112 multi/harmonic   -4.09990440e-01    0.00000000e+00    4.09990440e-01    0.00000000e+00    0.00000000e+00
113 multi/harmonic   -2.67997132e-01    8.03991396e-01    0.00000000e+00   -1.07198853e+00    0.00000000e+00
114 multi/harmonic    3.90009560e-01   -1.17002868e+00    0.00000000e+00    1.56003824e+00    0.00000000e+00
115 multi/harmonic    1.09942639e-02   -3.29827916e-02    0.00000000e+00    4.39770554e-02    0.00000000e+00
116 multi/harmonic   -1.05000000e+00   -1.05000000e+00    0.00000000e+00    0.00000000e+00    0.00000000e+00
117 multi/harmonic    1.36199809e+00    0.00000000e+00   -1.36199809e+00    0.00000000e+00    0.00000000e+00
118 multi/harmonic    1.50000000e-01   -4.50000000e-01    0.00000000e+00    6.00000000e-01    0.00000000e+00
119 multi/harmonic    3.90009560e-01   -1.17002868e+00    0.00000000e+00    1.56003824e+00    0.00000000e+00
120 multi/harmonic   -1.05000000e+00   -1.05000000e+00    0.00000000e+00    0.00000000e+00    0.00000000e+00
121 multi/harmonic    1.36199809e+00    0.00000000e+00   -1.36199809e+00    0.00000000e+00    0.00000000e+00
122 multi/harmonic    1.09942639e-02   -3.29827916e-02    0.00000000e+00    4.39770554e-02    0.00000000e+00
123 multi/harmonic    1.50000000e-01   -4.50000000e-01    0.00000000e+00    6.00000000e-01    0.00000000e+00
124 multi/harmonic    1.50000000e-01   -4.50000000e-01    0.00000000e+00    6.00000000e-01    0.00000000e+00
125 multi/harmonic   -1.05000000e+00   -1.05000000e+00    0.00000000e+00    0.00000000e+00    0.00000000e+00
126 multi/harmonic    1.36199809e+00    0.00000000e+00   -1.36199809e+00    0.00000000e+00    0.00000000e+00
127 multi/harmonic    1.09942639e-02   -3.29827916e-02    0.00000000e+00    4.39770554e-02    0.00000000e+00
128 multi/harmonic    3.90009560e-01   -1.17002868e+00    0.00000000e+00    1.56003824e+00    0.00000000e+00
129 multi/harmonic    1.50000000e-01   -4.50000000e-01    0.00000000e+00    6.00000000e-01    0.00000000e+00
130 multi/harmonic    1.50000000e-01   -4.50000000e-01    0.00000000e+00    6.00000000e-01    0.00000000e+00
131 multi/harmonic    7.50000000e-02   -2.25000000e-01    0.00000000e+00    3.00000000e-01    0.00000000e+00
132 multi/harmonic    7.94000956e-01    7.94000956e-01    0.00000000e+00    0.00000000e+00    0.00000000e+00
133 multi/harmonic    1.50000000e+00    0.00000000e+00   -1.50000000e+00    0.00000000e+00    0.00000000e+00
134 multi/harmonic    7.04995220e-01   -2.11498566e+00    0.00000000e+00    2.81998088e+00    0.00000000e+00
135 multi/harmonic    7.94000956e-01    7.94000956e-01    0.00000000e+00    0.00000000e+00    0.00000000e+00
136 multi/harmonic    1.50000000e+00    0.00000000e+00   -1.50000000e+00    0.00000000e+00    0.00000000e+00
137 multi/harmonic    7.04995220e-01   -2.11498566e+00    0.00000000e+00    2.81998088e+00    0.00000000e+00
138 multi/harmonic    1.75000000e-01   -5.25000000e-01    0.00000000e+00    7.00000000e-01    0.00000000e+00
139 multi/harmonic   -5.13001912e-01   -5.13001912e-01    0.00000000e+00    0.00000000e+00    0.00000000e+00
140 multi/harmonic    6.93977055e-01    0.00000000e+00   -6.93977055e-01    0.00000000e+00    0.00000000e+00
141 multi/harmonic    4.73996176e-01   -1.42198853e+00    0.00000000e+00    1.89598470e+00    0.00000000e+00
142 multi/harmonic    1.50000000e-01   -4.50000000e-01    0.00000000e+00    6.00000000e-01    0.00000000e+00
143 multi/harmonic    7.50000000e-02   -2.25000000e-01    0.00000000e+00    3.00000000e-01    0.00000000e+00
144 multi/harmonic    7.50000000e-02   -2.25000000e-01    0.00000000e+00    3.00000000e-01    0.00000000e+00
145 multi/harmonic   -1.59990440e-01   -1.59990440e-01    0.00000000e+00    0.00000000e+00    0.00000000e+00
146 multi/harmonic    6.29397706e+00    0.00000000e+00   -6.29397706e+00    0.00000000e+00    0.00000000e+00
147 multi/harmonic   -7.29923518e-02    2.18977055e-01    0.00000000e+00   -2.91969407e-01    0.00000000e+00
148 multi/harmonic    1.50000000e-01   -4.50000000e-01    0.00000000e+00    6.00000000e-01    0.00000000e+00
149 multi/harmonic    2.50000000e+00    0.00000000e+00   -2.50000000e+00    0.00000000e+00    0.00000000e+00
150 multi/harmonic    6.93977055e-01    0.00000000e+00   -6.93977055e-01    0.00000000e+00    0.00000000e+00
151 multi/harmonic    4.73996176e-01   -1.42198853e+00    0.00000000e+00    1.89598470e+00    0.00000000e+00
152 multi/harmonic   -5.13001912e-01   -5.13001912e-01    0.00000000e+00    0.00000000e+00    0.00000000e+00
153 multi/harmonic    2.50000000e+00    0.00000000e+00   -2.50000000e+00    0.00000000e+00    0.00000000e+00
154 multi/harmonic   -1.59990440e-01   -1.59990440e-01    0.00000000e+00    0.00000000e+00    0.00000000e+00
155 multi/harmonic    6.29397706e+00    0.00000000e+00   -6.29397706e+00    0.00000000e+00    0.00000000e+00
156 multi/harmonic   -7.29923518e-02    2.18977055e-01    0.00000000e+00   -2.91969407e-01    0.00000000e+00
157 multi/harmonic    7.50000000e-02   -2.25000000e-01    0.00000000e+00    3.00000000e-01    0.00000000e+00
158 multi/harmonic    7.94000956e-01    7.94000956e-01    0.00000000e+00    0.00000000e+00    0.00000000e+00
159 multi/harmonic    1.50000000e+00    0.00000000e+00   -1.50000000e+00    0.00000000e+00    0.00000000e+00
160 multi/harmonic    7.04995220e-01   -2.11498566e+00    0.00000000e+00    2.81998088e+00    0.00000000e+00
161 multi/harmonic    7.04995220e-01   -2.11498566e+00    0.00000000e+00    2.81998088e+00    0.00000000e+00
162 multi/harmonic    1.50000000e+00    0.00000000e+00   -1.50000000e+00    0.00000000e+00    0.00000000e+00
163 multi/harmonic    7.94000956e-01    7.94000956e-01    0.00000000e+00    0.00000000e+00    0.00000000e+00
164 multi/harmonic    1.75000000e-01   -5.25000000e-01    0.00000000e+00    7.00000000e-01    0.00000000e+00
165 multi/harmonic    1.60000000e+01    0.00000000e+00   -1.60000000e+01    0.00000000e+00    0.00000000e+00
166 multi/harmonic    2.50000000e+00    0.00000000e+00   -2.50000000e+00    0.00000000e+00    0.00000000e+00
167 multi/harmonic    1.80000000e+00    0.00000000e+00   -1.80000000e+00    0.00000000e+00    0.00000000e+00
168 multi/harmonic    1.80000000e+00    0.00000000e+00   -1.80000000e+00    0.00000000e+00    0.00000000e+00
169 multi/harmonic    1.80000000e+00    0.00000000e+00   -1.80000000e+00    0.00000000e+00    0.00000000e+00
170 multi/harmonic    2.50000000e+00    0.00000000e+00   -2.50000000e+00    0.00000000e+00    0.00000000e+00
171 multi/harmonic    1.80000000e+00    0.00000000e+00   -1.80000000e+00    0.00000000e+00    0.00000000e+00
172 multi/harmonic    4.39005736e-01   -1.31701721e+00    0.00000000e+00    1.75602294e+00    0.00000000e+00
173 multi/harmonic    4.69885277e-02    4.69885277e-02    0.00000000e+00    0.00000000e+00    0.00000000e+00
174 multi/harmonic    1.61998088e+00    0.00000000e+00   -1.61998088e+00    0.00000000e+00    0.00000000e+00
175 multi/harmonic    1.80000000e+00    0.00000000e+00   -1.80000000e+00    0.00000000e+00    0.00000000e+00
176 multi/harmonic    1.80000000e+00    0.00000000e+00   -1.80000000e+00    0.00000000e+00    0.00000000e+00
177 multi/harmonic   -2.09010516e-01   -2.09010516e-01    0.00000000e+00    0.00000000e+00    0.00000000e+00
178 multi/harmonic    2.08800191e+00    0.00000000e+00   -2.08800191e+00    0.00000000e+00    0.00000000e+00
179 multi/harmonic   -1.54995220e-01    4.64985660e-01    0.00000000e+00   -6.19980880e-01    0.00000000e+00
180 multi/harmonic    4.69885277e-02    4.69885277e-02    0.00000000e+00    0.00000000e+00    0.00000000e+00
181 multi/harmonic    1.61998088e+00    0.00000000e+00   -1.61998088e+00    0.00000000e+00    0.00000000e+00
182 multi/harmonic    4.39005736e-01   -1.31701721e+00    0.00000000e+00    1.75602294e+00    0.00000000e+00
183 multi/harmonic    1.80000000e+00    0.00000000e+00   -1.80000000e+00    0.00000000e+00    0.00000000e+00
184 multi/harmonic   -2.09010516e-01   -2.09010516e-01    0.00000000e+00    0.00000000e+00    0.00000000e+00
185 multi/harmonic    2.08800191e+00    0.00000000e+00   -2.08800191e+00    0.00000000e+00    0.00000000e+00
186 multi/harmonic   -1.54995220e-01    4.64985660e-01    0.00000000e+00   -6.19980880e-01    0.00000000e+00
187 multi/harmonic    4.69885277e-02    4.69885277e-02    0.00000000e+00    0.00000000e+00    0.00000000e+00
188 multi/harmonic    1.61998088e+00    0.00000000e+00   -1.61998088e+00    0.00000000e+00    0.00000000e+00
189 multi/harmonic    4.39005736e-01   -1.31701721e+00    0.00000000e+00    1.75602294e+00    0.00000000e+00
190 multi/harmonic    1.20000000e+01    0.00000000e+00   -1.20000000e+01    0.00000000e+00    0.00000000e+00
191 multi/harmonic    1.80000000e+00    0.00000000e+00   -1.80000000e+00    0.00000000e+00    0.00000000e+00

Improper Coeffs

1 harmonic    3.59800430e+00    0.00000000e+00
2 harmonic    4.32002868e-01    0.00000000e+00
3 harmonic    2.87900335e+00    0.00000000e+00
4 harmonic    3.59800430e+00    0.00000000e+00
5 harmonic    5.76003824e-01    0.00000000e+00
6 harmonic    1.07900335e+00    0.00000000e+00
7 harmonic    1.15100382e+00    0.00000000e+00
8 harmonic    5.03800191e+00    0.00000000e+00
9 harmonic    0.00000000e+00    0.00000000e+00
10 harmonic    0.00000000e+00    0.00000000e+00
11 harmonic    0.00000000e+00    0.00000000e+00
12 harmonic    0.00000000e+00    0.00000000e+00
13 harmonic    0.00000000e+00    0.00000000e+00
14 harmonic   -1.43900574e+00    0.00000000e+00
15 harmonic    9.35599904e+00    0.00000000e+00
16 harmonic    0.00000000e+00    0.00000000e+00
17 harmonic    0.00000000e+00    0.00000000e+00
18 harmonic    0.00000000e+00    0.00000000e+00
19 harmonic    0.00000000e+00    0.00000000e+00
20 harmonic    0.00000000e+00    0.00000000e+00
21 harmonic    0.00000000e+00    0.00000000e+00
22 harmonic    1.43900574e+00    0.00000000e+00
23 harmonic    9.35994264e-01    0.00000000e+00
24 harmonic    9.35994264e-01    0.00000000e+00
25 harmonic    1.43900574e+00    0.00000000e+00
26 harmonic    0.00000000e+00    0.00000000e+00
27 harmonic    0.00000000e+00    0.00000000e+00
28 harmonic    8.64005736e-01    0.00000000e+00
29 harmonic    9.35599904e+00    0.00000000e+00

Atoms

     1      1      1 -0.04500000    5.6000000    2.2200000   20.6300000
     2      1      2 -0.15000000    5.3300000    1.4500000   19.4800000
     3      1      2 -0.08200000    6.5200000    0.9400000   18.8700000
     4      1      1 0.04000000    7.7100000    1.3200000   19.5700000
     5      1      3 -0.15000000    8.9600000    0.8600000   19.0600000